2136
Lattice="27.410424635656216 0.0 0.0 0.0 29.387001178381208 0.0 0.0 0.0 27.326010398642612" Properties=species:S:1:pos:R:3:momenta:R:3:forces:R:3 Origin="-14.27895 -14.27895 -14.27895" charge=0 spin=1 energy=-1763254.0909974494 stress="0.0007174243801273406 -0.0008841133094392717 0.00014652028039563447 -0.0008841133094392717 0.0006702623213641346 -0.00016406946815550327 0.00014652028039563447 -0.00016406946815550327 0.003603871911764145" free_energy=-1763254.0909974494 pbc="T T T"
H        1.26132712      26.35523847      15.15718164      -0.24348952      -0.20272198      -0.28847971       0.06025540       1.18395567       0.34834337
C        1.43052726      25.31568483      15.28020689       0.06552813       1.08288567       0.84369128       0.01589173      -1.37705386       0.60791248
O        1.21291309      24.69184663      14.03706530       0.58319633      -0.26836196       0.00676742      -1.00733840      -0.06910506      -0.17872863
H        2.43475858      25.02518148      15.55354824       0.03400312       0.30233300      -0.02436868       0.51767242       0.57821137       0.29154709
H        0.77824394      24.88149529      16.07306197      -0.15647837       0.12980368      -0.26767542       0.17432992       0.40788606      -0.44962004
C       27.33857246      24.08967132      13.98465713      -0.39631005       0.16310166      -0.18483282       0.76092005      -0.60156095       0.05868277
C       27.33096845      23.25923938      12.75473277      -0.63648263       0.01770591      -0.22294533       0.96896541       0.90267175      -0.89175820
H       26.48696600      24.79654145      13.90122597      -0.19753090      -0.06907023       0.35583953       0.58659869      -0.09929433       0.45130384
H       27.25995535      23.43135039      14.87341634      -0.13678473       0.09004523      -0.10084134      -0.35297140       0.36536983      -0.30664444
O        0.91775452      22.29478731      12.74124270      -0.54007271      -0.67483161       0.19421066       1.67472446      -0.75902504      -1.06559515
H        0.00703244      23.88596746      11.85528453       0.00748909       0.10998353      -0.13539634      -0.05751230       0.16635630       0.17495988
H       26.44596452      22.74333304      12.67973808       0.11356082      -0.26909843       0.12213601      -2.77779078      -0.96162254      -0.19681910
C        0.85347231      21.52086394      11.51310903      -0.15958127       0.09959140       0.08552138       0.40300420      -0.47190762      -0.18545030
H        0.62478865      22.09616985      10.59391039      -0.11886024       0.14156566      -0.10895183      -0.00864633       0.28946391       0.74990499
H        0.01472060      20.80823142      11.62632151      -0.15393302       0.03946898      -0.07282940       0.51265144      -0.12302553      -0.10727736
H        1.84322610      21.02777773      11.24092850       0.21872503       0.03342332       0.10532044      -1.30034089       0.46687204       1.07298672
H        8.93369102      13.19184424      23.70623405       0.09036357       0.08862832       0.21890039       0.39957070       1.04315948       0.13619673
C        9.21340010      12.18884968      23.94385541      -0.60273293       0.18991749       0.04317423      -1.06098211      -1.39446175       0.20980756
O        9.43729660      11.47071248      22.73856126       0.45644254       0.56589378      -0.57860982      -0.37088120      -0.31886938      -0.11973867
H       10.00703808      12.05313622      24.68488872       0.15838581      -0.09705417      -0.14371249       0.14676742       0.42045602      -0.27636498
H        8.30309103      11.72155452      24.38796131       0.15190685      -0.33569541       0.06807493       0.52392644       0.16247872      -0.20894624
C       10.55712311      11.81481348      21.96955973      -0.74013626       0.38900162      -0.65199113       1.25647831       1.03099251       0.14393099
C       11.87045152      11.49154619      22.62557255      -0.53100648       0.39526696      -0.35029394      -0.85472554      -0.07197295       1.82841325
H       10.68293667      12.88642816      21.73343310      -0.27173014      -0.04019894      -0.12785538      -0.86836886      -0.07905697       0.01945930
H       10.53583471      11.28081536      21.04912823       0.16300160      -0.20699284       0.29541254      -0.60358924      -0.50822312      -0.72911680
O       12.25631619      12.69153294      23.35146808      -1.12309015       0.02682436       0.07031115       0.12760559      -0.77853626      -0.95050442
H       12.58008201      11.11964882      21.90009971       0.25351669      -0.05165039      -0.02238444       0.68459302       0.40889421      -0.22346601
H       11.64109360      10.62492133      23.30782134      -0.04262479       0.06187898       0.13073596       0.56866783       0.67426759      -0.08113264
C       13.50185359      12.56348531      24.00092730      -0.02155761      -0.08501017      -0.04392878       0.88684589       0.30166858      -0.27770233
H       13.44362051      11.69972504      24.65912204      -0.12633208       0.05576812       0.36684316       0.46501467       0.27477396       0.14037251
H       13.75539812      13.50395106      24.53316892       0.20175744       0.14678542      -0.05154971      -0.62746209      -0.48532724      -0.02262662
H       14.37937707      12.46374971      23.32069793      -0.13231559      -0.36345747      -0.29946673      -0.66287392      -0.34151056      -0.09859417
H       12.78448847      24.34612454      20.37279389       0.00421630      -0.21482208      -0.27940576       0.27646548      -0.28695667       1.00536978
C       13.25183169      24.20538185      21.40421273      -0.79185282      -0.90285115      -0.43429679      -1.25575387       0.55771053      -1.10137045
O       12.59251601      23.26397986      22.18625941      -0.90040633       0.78357184       1.42281912      -0.70820779      -0.50969887       1.13056397
H       14.24901135      23.80627167      21.23131596       0.03285813       0.06016784       0.09584328       0.21309923       0.37596980       0.14380504
H       13.19656306      25.19871989      21.88474445       0.21267549      -0.01829765      -0.05738657       0.61263061      -0.17484598      -0.06676439
C       11.29211697      23.62921544      22.74973123      -0.05807454       0.70863793      -0.73633364       0.76256949      -0.14092235      -1.51900494
C       10.21064458      23.15777948      21.77059156       0.04330732       0.46670694      -0.90443620       0.99071568       0.15739040      -0.90975118
H       11.22603924      24.74110262      22.82466524       0.01478835      -0.13600056      -0.07065422       0.00376584      -0.69287127       0.32526898
H       11.20757919      23.10300645      23.70943485       0.01076073       0.11378976       0.00649470       0.13745473       0.42163900      -0.27659801
O       10.15476869      21.75722046      21.55437496      -0.93578585       0.14411991      -0.55108955      -0.92333233      -0.59783036       2.21774244
H       10.43226484      23.59015299      20.76496891       0.39040145       0.03646816       0.09773376      -0.05372474      -0.16621061       0.73859370
H        9.26557935      23.54144485      22.08858541      -0.06095766      -0.09241278       0.24546114      -0.91116405       0.30907321       0.26751173
C        9.53615895      21.07965817      22.73455418       0.50039842      -0.80808884      -1.25943966      -1.42830384       0.65067470      -2.44301462
H        9.69096444      21.59041876      23.64394541      -0.27469054       0.08656091       0.26537355       0.58345050       0.70876884       0.95107949
H        9.92628357      20.09663526      22.79771940      -0.01633689       0.08545450       0.03015076       0.58727044      -0.86474198      -0.01149428
H        8.41084287      20.98522198      22.62487500       0.17713951      -0.13721146      -0.13623574       1.06834304       0.28416327      -0.28194794
H       10.31482370       7.99403434       6.60813224       0.08323812       0.13958041      -0.12761295       0.17448542      -0.03031817      -0.86408246
C       10.01095561       7.76956008       5.56743213      -0.68041497       0.59623902      -0.44948327       0.26043817      -1.28737915      -0.71788353
O       11.04128743       7.95032015       4.56808797      -0.83744410      -0.05402999      -0.55603971      -0.70820010      -0.59184361       1.02757430
H        9.58004808       6.73405062       5.48301948       0.15603637       0.08859426       0.16913313       0.66275126       0.52136266       0.36215219
H        9.19955709       8.35878926       5.22669815       0.12463673      -0.11200869       0.26160150      -1.08581877       1.08868933       0.29487750
C       10.47777318       7.86657609       3.25422264       0.34934769       0.18706547      -0.69457810       1.29400575       0.39888555       0.02816429
C        9.68759443       9.10848630       2.91559701       0.78537870       0.40271087       0.79589601      -0.97702378      -0.31881720       0.28072089
H        9.76673121       7.04674425       3.12369952       0.22414750       0.19089110       0.05524066       0.37866139      -0.52626270       0.10307787
H       11.42462021       7.75342305       2.66530441       0.28216245      -0.07563353      -0.10765297      -1.18990648      -0.02088508      -0.15363736
O        8.23911150       8.87113868       3.09372589      -0.36004121       0.40384654       0.12011836       0.60004497       1.17993426      -1.08009982
H        9.85339348       9.50203196       1.91672189      -0.11772823       0.09105915       0.10537495       0.09633379      -0.31721231      -0.32476056
H        9.97471454       9.87268469       3.61696346       0.18278452      -0.16763813       0.04345043       0.17574655       0.50887221       0.23111513
C        7.62161170      10.00041817       2.38913459       0.42659071      -0.21154236       0.34826307       0.24435352      -1.39185333      -0.51324201
H        7.65045577       9.85677902       1.27961734       0.26851644       0.01780254       0.13506849       0.22348745      -0.04582781       0.77953291
H        8.18961372      10.86415780       2.66756613      -0.18486249       0.04421870      -0.01407103      -0.01578297       0.87270266       0.02862282
H        6.58099812      10.10408110       2.65801433      -0.06110502      -0.20640929      -0.26461322      -0.30773285      -0.10365404       0.44644365
H       15.32472406       0.67602412      14.74069445      -0.09699270       0.06362460       0.21585312       0.53084588      -0.12247055      -0.42736974
C       14.25201685       0.65962629      14.78987100       0.03170087      -0.69602190       0.67913038      -0.55432236       0.62425429       1.10174763
O       13.73681697      28.79635340      15.19048477      -0.54989739      -1.41143643      -0.58122814       0.89771456      -0.57241619       1.36359763
H       14.00007903       1.42239120      15.54397039       0.10550898      -0.24735660       0.28942548       0.02618701      -0.06361108       0.04537741
H       13.75419512       0.98454117      13.90828804      -0.05047392       0.01244675       0.19824174      -0.21039876      -0.01811636      -1.09982669
C       14.30828875      28.51758498      16.50815334      -0.66136530      -0.81657612      -0.24693804      -1.76284826      -0.87783438       0.56330907
C       13.41106398      27.58581408      17.34254312       1.43352967       0.52420303       0.59087580       1.28858960      -2.20596719      -1.25523365
H       14.26185266       0.06825830      17.06345719      -0.16476332      -0.00162212       0.05925755       0.73526806       0.03978829      -0.07003920
H       15.28994930      28.01238762      16.51222499      -0.04965599      -0.24093819       0.10412353      -0.18246405       0.82532561      -0.41662431
O       13.69114169      26.19108136      16.88674937       0.62154797       0.30100717       0.50229161      -0.01707430       1.14566720      -0.13522862
H       12.36517297      27.78097174      17.20145460      -0.08288022      -0.07518211       0.20703192      -0.75182176       0.20921284      -0.08695426
H       13.66511221      27.62011570      18.40194646      -0.08452097      -0.04567537      -0.20349105       0.15060648       0.33146289       0.11830959
C       13.09452596      25.16181904      17.65414399       0.16675810       0.14920865      -0.40595142      -0.04214984       2.50995278       1.76887202
H       13.69608409      24.93566607      18.56316217      -0.10299980       0.00437278      -0.02747840      -0.12143954       0.07380570      -0.45683032
H       12.99599498      24.28680136      17.07768930       0.15615714       0.15794897      -0.00545273      -0.36937308      -1.01135528      -0.79611802
H       12.13137184      25.57937762      18.02712291       0.29504422       0.33564653      -0.00774549       0.08900653      -0.83863962      -0.20692836
H       17.75998463      19.55767371      20.75373733       0.20174582      -0.00802024      -0.01334640       0.57321709      -1.40358531       0.10223608
C       18.44708436      20.23858454      20.27131719       0.01233261      -0.79731860      -0.60544033      -2.84793115       3.00287223      -1.68758929
O       19.78676798      20.22229553      20.34929255      -0.55090503       0.39299886       0.83098621       2.38111806      -0.17746024       0.68743551
H       18.05222286      20.49062919      19.19315621       0.23043640      -0.25262258      -0.07043138       0.61455786      -0.83425331       1.55953765
H       18.20484175      21.15478909      20.84762391       0.08915847       0.07279607      -0.17996105      -0.20812769      -0.03861834      -0.37020642
C       20.61375291      19.25930232      19.71332312      -0.72261180       0.86888408      -0.33858208      -0.64517063       0.40976447      -0.82454121
C       20.69178549      17.97552122      20.49234218       0.50429633      -0.93464854       0.44186808       0.00304467      -0.36929032       0.32679480
H       21.57809383      19.79801662      19.57198407      -0.10302239       0.24399444      -0.03091587      -0.40047824      -0.73441696       0.29574981
H       20.21227133      19.07154205      18.70588919       0.12495589      -0.15424157      -0.13307092       0.02573298      -0.12334513      -0.04372786
O       21.33038652      18.17456933      21.74387774      -1.45893818       0.59727558      -0.21028384       0.41498601      -0.86653399      -0.80673456
H       21.25899600      17.23094654      19.94213352      -0.03981533       0.06493079       0.09011865       0.54136795       0.00430905      -0.14063588
H       19.72972792      17.45292232      20.62552586      -0.08456587       0.01981602       0.06726575      -0.20334825       0.59997940       0.04461491
C       20.54811877      18.58317305      22.81541087       0.08825617      -0.38397153      -0.08835935      -0.06053641       1.07811153       0.86240774
H       21.30017109      18.71768093      23.61149916       0.13539354      -0.13933481       0.16288156      -0.55060518       0.62286854      -0.05172566
H       19.85290918      17.85752366      23.24846604       0.11397875       0.18881340      -0.05516477      -0.19752425      -0.51565313      -0.55064255
H       19.96428724      19.50663672      22.55660156       0.02314509       0.16577266       0.16139583       0.63755339      -0.56430978       0.56078285
H       18.68608385      25.43510616      17.48303586       0.18851219       0.05216370      -0.20675740       1.61868119       0.10943647       1.32519221
C       19.38396660      25.44800516      18.43197178       0.65174819      -0.26637727       0.38954352      -3.25083923      -0.24733800      -0.78867596
O       18.47077011      25.26104862      19.54656787       0.90687143      -0.46031356       1.20265942       1.73090446      -1.07049394      -0.88288856
H       20.00306919      24.57854364      18.46543714       0.10123737      -0.06952408      -0.15882411       0.59910083      -0.41232544      -0.25136313
H       19.94097027      26.37951409      18.44856645       0.01937023       0.01652585      -0.14990485       0.03695525       0.22381596       0.26374707
C       17.58851267      26.28572128      19.71061101       0.49214570       0.02332866      -0.47036706      -0.27719608       2.57121134      -0.78255230
C       16.55923940      25.96732132      20.72427273       0.05375311      -0.61075498       0.09418652       0.89256513       0.79542071       0.65628767
H       17.01995941      26.57024274      18.77524067       0.09772699       0.30427811      -0.28764024       0.58632314      -0.34430188       0.40834954
H       18.13805703      27.22204443      20.01012571       0.28507054      -0.23635071       0.10224465      -0.46427727      -0.60587472      -0.16508725
O       17.20205309      25.64734731      21.94195699       0.28763472      -0.03488196      -1.17220085      -0.23021401       0.02564513       0.10659140
H       15.92435801      25.20440808      20.37131055      -0.13247356       0.09739705      -0.04247510      -0.84739131      -1.44689155      -0.25361437
H       15.95406178      26.85918804      20.81630919      -0.11282772       0.26916586       0.20667320      -0.36146337       0.47496125       0.25888839
C       16.34108771      25.74168470      23.05627842       0.05446838      -1.10040206       0.59626684       1.46180582      -0.78261191       0.86870378
H       15.63468773      24.90229985      23.09216622      -0.17484161      -0.18559854       0.01242092      -0.23609893       0.46106955      -0.06021126
H       15.90269559      26.71846738      23.11638863      -0.30214859       0.20979285       0.08787353      -0.78073466       0.55089587      -0.11164846
H       17.00076615      25.66584259      23.95901996       0.12075083      -0.22259498      -0.09892634      -0.49415043      -0.12994032      -0.60527360
H       15.17459580       4.68120182      20.60799706      -0.06030233      -0.28045432       0.09118485       0.49054229       1.91011333       0.09217222
C       14.80891034       3.74557316      20.33115800      -0.33217284      -0.43653587      -0.41972775       0.69504428      -1.75532055      -1.02190232
O       14.10819397       3.80846942      19.08599236       0.99428877      -0.18128622      -0.22933968      -0.67409360      -0.27908364       1.23419690
H       15.67178189       3.09226247      20.09447219       0.01507331       0.11509974      -0.06455511      -0.14275768       0.21700445       0.69079524
H       14.29373932       3.38419730      21.22326158       0.11155260       0.09137815      -0.00891219      -0.60874683      -0.35644320      -0.37185541
C       13.97456122       2.47415039      18.54014732       0.12263704       0.70806531      -0.28891470       0.19548106       2.04357505      -1.78668427
C       12.83745926       1.68517052      19.08804927       0.31047841      -0.43019152      -0.22552867      -1.85283220       1.76237118       1.28761852
H       14.96552149       2.06141840      18.56055647       0.29004682       0.09248126       0.11301316       0.26627260      -1.00407290       0.42943969
H       13.85634106       2.74902046      17.47612157       0.02802721       0.05814265      -0.03334992      -0.48160121      -0.71432567       0.14320321
O       11.55938185       2.29124765      18.62251707       0.42937120       0.02509094       0.88564276       1.34636223      -0.05179738       0.31783414
H       12.85669896       1.74745879      20.21221451      -0.05090099      -0.06883574       0.25895289      -0.09986691      -0.04906056      -0.77287668
H       12.84545249       0.64883512      18.85272839       0.03735089       0.27130449      -0.21109796       0.19425307      -0.99952644      -0.58587283
C       10.43401740       1.51332299      19.04474403      -0.34803932      -0.20942783       1.15341325       0.52432024       1.09114683       1.80537009
H       10.49859660       0.60702179      18.50982612      -0.07310128       0.03840016      -0.31785777      -0.29840755      -1.51918602      -0.46947181
H        9.47583258       2.02304686      18.82565015       0.06989726      -0.00917943      -0.03773212       0.73999184      -0.09442351       0.00776126
H       10.51267818       1.34456348      20.16589796      -0.15324077      -0.00622540       0.17571691      -0.36621359       0.02541882      -1.31106734
H        0.35608376       4.67914133      25.49236996       0.10431414       0.09776730       0.05304958      -0.62384701       0.45577818       1.38024127
C        0.15908267       4.67314083      26.60944035       1.27528537      -1.31717962      -0.83913592       0.32542232      -1.40778935      -2.03268051
O        0.50505779       3.37185090      27.05695148      -0.19520993       0.28390500       0.88018037       0.49149606       0.36363789       0.99397302
H        0.85153659       5.35309967      27.04273277      -0.01675872      -0.22477898       0.01812908       0.50853711       0.60409927       0.57866836
H       26.55472843       4.93737810      26.85824788       0.25575626      -0.03944567      -0.02999411      -0.26012701       0.12089394      -0.07406250
C       27.16725750       2.31079285      26.54307305       0.58048365      -0.51777032      -0.22053106      -0.53404856      -1.76945329       0.65244198
C       25.73521987       2.20941674      27.13995445      -0.38886847      -0.49233081      -0.23241187       0.11094978       2.53754950      -0.08265843
H        0.23847034       1.36024539      26.92721376      -0.12500056      -0.05754278      -0.29986460      -0.08976991       1.01162732      -0.62387574
H       27.17208214       2.29018372      25.43446777      -0.07137341       0.08922926      -0.10445519      -0.18412180      -0.09260823       0.75057954
O       25.84902240       2.26308974       1.26669561       0.10858330      -0.24642352       0.08924303      -0.75296348      -0.73243225      -1.30741978
H       25.21184396       1.32447813      26.75398576       0.06716556       0.13681459      -0.23989536       0.14850867      -0.07720312       0.32760838
H       25.10025614       3.13774982      26.81789056      -0.00049684      -0.09304237      -0.00878046       0.92067719      -1.46668839       0.51617396
C       24.52658591       2.25496129       1.84203300      -0.51979366       0.21933521      -0.11467323       1.49198151       1.44927454       1.37174106
H       24.12971372       1.25723780       1.91325699       0.04445500      -0.37371645      -0.07016425      -0.30160612      -0.41978434      -0.03193769
H       23.94860232       2.93966384       1.24969647      -0.14917945       0.00912408      -0.19989907      -0.84735566       0.05999460      -0.20563306
H       24.61753982       2.75297962       2.86388390       0.00055492       0.03155567      -0.12690226      -0.19741903      -0.98351097      -1.20659459
H        3.92048458       8.66917303      17.64245210      -0.10170312      -0.12979583       0.42924736      -0.78616363       0.20731743      -0.97820830
C        4.86098343       8.32744532      18.00165993      -0.40869321       0.66444334      -0.35121442       1.00746787      -0.47451061       2.55481267
O        5.21858143       7.02311506      17.60923455       0.16714197       0.79492858       0.74127044      -0.52178198      -0.01910080       1.25236857
H        5.68945601       8.98859327      17.76477592       0.10170276      -0.03453598      -0.07101163      -0.08495215       0.51269192       0.02067456
H        4.70185675       8.28460162      19.14019676       0.03545331      -0.08961990       0.04206493       0.57757163       0.10847881      -1.60864472
C        5.65809672       6.80295882      16.31954089      -1.01850039       0.42367520       0.02927861       0.08919862      -0.10285671      -0.72099566
C        7.13617296       6.81416028      16.10147792       0.92551371      -0.98211138       0.97442067       0.81700605       2.71752858      -1.11914921
H        5.23096590       7.43751447      15.54745401       0.02725467       0.16694194       0.01356045      -0.36653402       0.63549590       0.02026174
H        5.28079898       5.82304051      16.12703881      -0.21952454       0.05255168      -0.17030439      -0.02151345      -0.99857885      -0.54673040
O        7.76149516       5.88503272      16.87583096       0.21774843      -0.63725491       1.28146827       0.05473865      -1.35171700       1.34464788
H        7.63633628       7.82212345      16.30299887       0.20676451       0.06241286      -0.12232965      -0.90671945      -0.86864084      -0.18619879
H        7.30737584       6.66946937      15.00438331      -0.13419786       0.09822297      -0.26022055      -0.11565851      -0.33946913       0.54961306
C        8.95487659       5.40683422      16.35338075       1.40414166       0.53898267       0.50274628       0.81676680      -0.36633921       0.29957741
H        9.31108675       4.60624489      17.02552072       0.31640885       0.12631530       0.12438695       0.01131435       0.35336229      -0.28552344
H        9.74284325       6.15801255      16.21492756      -0.14383061      -0.03619416      -0.03535120      -0.29841906       0.05526616       0.41796052
H        8.77460667       4.99611862      15.37627089      -0.15891127       0.16620630      -0.05147405      -0.09260821      -0.52927107      -0.73351789
H       26.72037815      21.10090398       3.98746465      -0.00208556      -0.00026756       0.10484774      -0.11789838       0.11257408      -0.01895768
C        0.35915346      21.04406094       3.69239571       0.07703205       0.20566047       0.26020248      -0.67375612      -1.69352782       0.71599686
O        1.04030795      20.15859791       4.60291389      -0.54400532       0.93767487      -0.58915200       0.01216361       0.61478102      -0.92765629
H        0.39991448      20.59264612       2.71878735      -0.39263476      -0.22920046      -0.11590313       0.08201467      -0.28112242      -0.54071867
H        0.72668944      22.03998282       3.64220417      -0.03534739       0.03046045       0.11610188       0.79736507       0.86197430       0.03134678
C        1.76505484      20.86884446       5.57997382       0.01329203       0.07989851      -0.24138788       1.56930339       0.05695943      -0.48977646
C        0.85521253      21.77477958       6.34463438      -0.91469922       0.44006827       0.18521575      -0.54418486       0.44057992       0.35729489
H        2.58943436      21.52508872       5.07795272      -0.21973408      -0.23334614       0.22611295      -1.17313135      -0.97238415       0.81098181
H        2.26114767      20.07612024       6.22707333       0.12402758      -0.16865849       0.16663609      -0.60353297       1.16203392      -0.56347907
O       27.33231502      20.94526633       7.03013609      -0.41026647      -1.09579535       0.14502977       0.36078271       0.28549424      -0.18305340
H        0.36450272      22.54093342       5.64550289      -0.03908330      -0.24755830      -0.07165126       0.33450729      -0.98225087       0.93139243
H        1.44301628      22.31321314       7.08200269      -0.13488424      -0.26745449      -0.02731830       0.10600710       0.30982217       0.08422296
C       26.45183761      21.63254337       7.87773063      -0.20674790      -0.16357270       1.11393711       0.08836859      -0.57094657       1.73783576
H       26.27620340      20.97752267       8.83852846       0.21430019       0.04901555       0.16392020       0.24298722       1.14015770      -1.78741860
H       25.51324946      21.74488596       7.33138720      -0.05521250       0.23006458       0.02599284      -0.27436376       0.38966966       0.34288540
H       26.85970093      22.62393780       8.24042184      -0.28096829      -0.01435998       0.06713764      -0.42184150      -0.85147363      -0.47089502
H        7.55981681       0.06557389      21.17292688       0.10342006      -0.02005221      -0.12375860      -0.41820440       0.03474650      -0.27927926
C        7.94010330      28.43892938      21.04829329      -0.14141616       0.20970246       0.42484180       0.54011071       2.32520032       0.48193210
O        9.35062392      28.65344306      21.05520147       0.51669068       0.57616824       1.02199162      -0.70314461      -0.88241690      -0.14740707
H        7.50030813      27.87534719      21.84342301      -0.31416091      -0.08532952       0.14413843       0.45259356      -0.79627949       0.92613095
H        7.58985247      28.00615180      20.15557411      -0.10311881      -0.02844656       0.15852359      -0.25952765      -0.47717163      -1.42517710
C       10.03539570      27.47880528      20.67673572       0.65544257      -0.25679989      -0.39321773       1.17484927       0.84647918       1.33896208
C       11.50275854      27.68458815      21.08201272       0.41172142      -0.58893247       0.93543671       0.24799478      -2.51553726      -0.72803074
H       10.04285901      27.27422564      19.60579557       0.24855326      -0.07591155       0.47515546      -0.31070846       0.11708741      -0.33604002
H        9.59172918      26.63766823      21.19294401      -0.03467649      -0.23571103       0.15881710      -0.03358912      -0.56212533       0.13915057
O       11.83269709      27.80096153      22.43006422       0.05346950       0.32178931      -0.12406471      -0.22855324      -0.25734514       0.44317141
H       11.89438452      28.54242284      20.56834753      -0.24117344      -0.02509881       0.00159893       0.33394673       0.30781934      -0.71653187
H       12.02308792      26.71640684      20.81373347       0.06232257      -0.00599759      -0.23452952      -0.31040141       1.08781326      -0.55269080
C       12.11026322      29.10620396      22.79970235       0.17019115      -0.35234177      -0.17038251       0.29291174       1.41492963       2.39759922