2315
Lattice="28.43843068873652 0.0 0.0 0.0 28.203042304618872 0.0 0.0 0.0 27.881411702202648" Properties=species:S:1:pos:R:3:momenta:R:3:forces:R:3 Origin="-14.32015 -14.32015 -14.32015" charge=0 spin=1 energy=-1703414.873040927 stress="0.0026199400890618563 0.0005961315473541617 -0.0003214717726223171 0.0005961315473541617 0.00016669525939505547 7.347838254645467e-05 -0.0003214717726223171 7.347838254645467e-05 0.002999363001435995" free_energy=-1703414.873040927 pbc="T T T"
H       10.47202829       7.08639282      26.44680157      -0.30016814      -0.08462888      -0.14149399       0.81476331       0.05923133       0.19436876
C       11.45772006       7.55410104      26.69298066      -0.11492705       0.31648132      -0.41683856      -0.15241158      -0.71242750       0.74116147
O       11.31196085       8.91385893      26.96107120      -0.82364877      -0.64499970      -0.06647204       0.40858251       1.18229103      -0.61081582
H       11.93400939       7.05754933      27.60692268      -0.15507838       0.08266317       0.15703297      -0.53210551       0.11385971      -1.14943755
H       12.13836913       7.49766014      25.81192939       0.10496092      -0.07322799      -0.38336029      -0.42294031      -0.19823374       0.65090227
C       10.48958465       9.34811393       0.13867592       0.02474321      -0.54833126      -0.35010547      -0.49267006       0.18987532      -1.02703607
C        9.02205005       9.34102702      27.56308512      -0.08824602      -0.26410276      -1.13836983       1.63620460       0.10644771      -0.69936389
H       10.83247028      10.33747568       0.39050018       0.16671106       0.03097578      -0.02980570       0.05538381       0.55416733      -0.00997733
H       10.63432862       8.74653975       1.00577920      -0.13464172      -0.16232908      -0.01305274      -0.04520466      -0.87208545       0.93162543
O        8.21028369       9.70620408       0.71659935      -0.51007642      -0.28790339      -0.14527941      -0.45751074       0.42838690       0.98773170
H        8.88579231       8.34568697      27.20677888      -0.08123642       0.06816314       0.13519033      -0.74832672      -1.22496521      -0.21495168
H        8.96217436       9.95717442      26.65132823       0.01304590       0.08761145       0.17250860      -0.28133810       0.34466028       0.22448780
C        6.82114721       9.40445546       0.60774109      -0.53389808      -0.57029350       0.08219795       0.47828165       1.09294868      -0.41930842
C        6.06642848      10.18568840       1.68361432      -0.32202912       0.46780606      -0.22777072       1.14922810      -0.29713482      -0.26339716
H        6.66995017       8.34317213       0.75627918      -0.11515516      -0.01518230      -0.27804010      -0.18119334      -0.36605760       0.25921994
H        6.50520517       9.63063071      27.48619037      -0.04036376       0.16168776      -0.02695516      -0.31113061       0.40827242      -0.61663395
O        6.32558949       9.38513231       2.79904667       1.38607988      -0.11862313      -0.46367702      -1.24705827      -0.28134736       1.45093346
H        6.43085339      11.22764804       1.93406434      -0.02712533       0.34289559      -0.08703397      -0.30557555      -0.97841060      -0.91957736
H        5.01138250      10.23877112       1.37204683       0.08761577       0.27957319      -0.12505394      -0.05346765      -0.07187860       0.45295337
C        5.53316180       9.80474038       3.94134156       1.13247043       0.48754320      -0.92912114       1.38133478       0.03788535      -1.27231836
H        4.46419885       9.66910951       3.70337832      -0.21740460       0.18784173      -0.08425307       0.25733924       0.19326384       0.39300758
H        5.84216570      10.86029348       4.08366560      -0.05334313       0.18341754       0.16603257      -0.70098984      -0.16682436       0.42379418
H        5.88866079       9.19392884       4.76409866      -0.11265093       0.21661093      -0.39565710      -0.40504095       0.01799234       0.22653098
H        1.34255299       6.49603481      12.96278118      -0.05255168       0.25969421       0.06253106      -1.29262507       0.75566947      -0.23653315
C        0.51429527       7.10770629      12.48052947      -0.47918398       0.02013721      -0.20336850       0.53659588       0.33974823      -1.22289550
O        0.78140457       8.50784041      12.47418441       0.96015219       1.33006495      -0.58596258      -0.00468772      -0.80828768       0.18604945
H        0.35302722       6.74637722      11.42239277       0.12639817      -0.04442561      -0.08441632       0.55856073       0.08739422       0.78889793
H       27.97236693       7.10555769      12.90038022       0.40411539      -0.09168312       0.04580126      -0.45045382      -0.92972076       0.93736416
C        2.07142323       8.82540964      12.01708237       0.01788350      -0.10706187      -0.24121662      -0.74125665      -0.57540661      -0.73539978
C        2.14606727      10.28367893      12.04808448      -0.54001781      -0.59983881      -0.14854589       0.23520471       2.36127806      -0.38405061
H        2.23954605       8.47112282      10.99990602       0.08859960       0.26655120      -0.06862744      -0.05055380      -0.12911069      -0.29237431
H        2.79305455       8.36141685      12.65301319      -0.10285070       0.16289527      -0.24068788       0.88984114      -0.16629247       0.61142272
O        1.17547454      10.84575086      11.18178473      -0.46722059       0.54264169      -0.72053163      -0.32744846      -2.07594872      -0.55687565
H        3.09998902      10.67713888      11.65823193       0.07537811      -0.13823362       0.13192881       0.23274730      -0.33452582       0.65284747
H        1.91180348      10.65823646      13.04838742      -0.11652851      -0.28527239      -0.12632911       0.48102301       0.01765499       0.29271081
C        0.96732462      12.19896396      11.24715582       0.55808018      -0.00549310      -0.09670239      -0.25756213       0.57574785       0.13591900
C        0.20738993      12.54590110       9.93680147      -0.89176336      -0.40945317       0.19695501       1.08431172       2.13744712       0.96810520
H        1.94726397      12.73903818      11.23421527      -0.24722676      -0.00833095      -0.21598950      -0.60082573       0.00432850       0.02508017
H        0.42528789      12.43248826      12.20810849      -0.02347995       0.00610667       0.34632869       0.30699331       0.21760023      -0.79137355
O        0.32966522      14.01140329       9.75899185       0.07787501       0.12281252      -0.19504521      -0.59555125      -0.32490861      -0.13854256
H        0.76609142      12.00643705       9.13218524      -0.23443557       0.08732473       0.04003970      -0.62918156       0.77379125       0.41787481
H       27.58476366      12.32798958       9.92717914       0.13289950      -0.12166577      -0.06160363      -0.19174366      -0.56464821       0.14631084
C       27.99261300      14.84366273      10.67569263       0.21392976       0.24483825      -0.34749085      -0.60800344      -1.68170154      -0.17237899
H       28.19702132      15.88242938      10.45747946      -0.06113604       0.02327935      -0.27388158       0.14312755       0.10775681      -0.18112577
H       28.32316989      14.62284824      11.69740391      -0.17535647      -0.11202865       0.09769758      -0.19360282       0.22682270       0.00137638
H       26.85403290      14.67600967      10.62299087      -0.09425506       0.14687839      -0.09099699       1.54809153       0.01015945      -0.11095564
H       19.58754911       2.33578185       9.87369237       0.10681990      -0.01339267      -0.17130398      -0.40907538       0.53616506       0.92891735
C       19.36040474       3.20187324      10.54546107      -0.07383180       0.40112103       0.54408035      -1.62717891      -0.45437357      -0.17059468
O       20.34459463       3.26772919      11.54112063       0.29335293      -0.52445285      -1.30632270       0.40223655      -0.35586220      -0.29774299
H       19.23263621       4.10044550       9.88019043       0.12374801       0.19875554      -0.33489274       0.65834892      -0.32398111       0.58640069
H       18.34106666       3.11789276      11.06471843       0.02778188      -0.14952141       0.14667964       1.00606596      -0.27568418      -0.79612184
C       20.34889132       4.52380923      12.16570181      -0.94699897      -0.20344599       0.49109333      -0.08411371       0.23776266      -1.68701625
C       21.37855258       4.61684505      13.23756693      -0.48460775       0.03482038       0.56693900       0.43482697       0.02864203       0.61908454
H       19.35620274       4.74915645      12.53247881      -0.00368760      -0.15961042       0.25682687      -0.48894680       0.08079118       0.52995253
H       20.50815694       5.24009358      11.31093681      -0.30309118       0.12771500      -0.06476399       0.28822604       0.10544375       1.00128531
O       21.06064455       3.86888726      14.41232962       0.70433425      -1.11947922      -0.59519257       0.00724788      -0.26638916       0.49589804
H       21.51259273       5.66959325      13.46051747       0.07728494       0.16640478      -0.10748130      -0.01601855       0.41459262       0.37681329
H       22.36536944       4.24412717      12.96856170       0.06136497      -0.08360441      -0.21875937      -0.07548166      -0.14111160      -0.62669164
C       20.36324102       4.57321197      15.42477477       0.88372023       0.40753292      -0.24004118      -0.78173363       1.98377931      -0.19487041
C       20.19566878       3.79262977      16.68541108      -0.53722436      -0.31172177       0.14461607      -0.32209271      -1.57267606      -0.93608361
H       19.34920168       4.90910404      15.06532803       0.19391567       0.14212638       0.09703425       0.83736044      -0.28851366       0.29288283
H       20.93926051       5.45890855      15.75378431       0.14948245       0.16983473      -0.11744035      -0.01517832       0.15883419      -0.65473002
O       21.43481858       3.42206121      17.22729723      -0.46831726       0.33294750       0.30538031       1.11580443      -0.15200272      -0.04559013
H       19.62859925       4.32443051      17.44592720      -0.08795567      -0.12830972       0.15133168      -0.48366117       0.09978355      -0.22193423
H       19.71935193       2.85916321      16.37127864       0.09665433      -0.05276931      -0.03639788      -0.32716340       0.02027210       0.54135823
C       21.85884807       4.35169479      18.21214163      -0.50222647      -0.21008755       0.31596382       0.22969911      -0.94950300       0.32001561
H       21.14273760       4.26029395      19.02582191      -0.22179700      -0.28917639      -0.23024967       0.04641820       0.36502388       0.35180810
H       21.93712032       5.35725155      17.83573712      -0.26276104      -0.27809310      -0.04227487      -0.06132114       0.56412065      -0.08054931
H       22.83834410       4.03987624      18.57679283      -0.13237865       0.30424518      -0.03792110      -0.03758562       0.04023067      -0.05549916
H       23.51837717      13.83343580       9.45539200       0.05831597      -0.05907485      -0.07052259      -0.19990751       0.11405673       0.11550668
C       24.39283952      13.55755823       8.86608405       0.44750104       0.23118820      -0.10519253       0.88475752       0.82644469       0.99027717
O       24.54873301      14.44639440       7.76103381      -0.25549807      -0.07306452       0.33702647       0.09912067      -1.63118565       0.27783930
H       25.28094392      13.71516582       9.55694171       0.02680833      -0.18954691       0.12524464      -0.91199946      -0.45505756      -0.89085352
H       24.28130889      12.49349504       8.62115243      -0.37040871       0.05578163      -0.01757857       0.24986899       0.18052115      -0.40506199
C       23.39953518      15.16035466       7.39649790      -0.36316010       0.61669151      -0.32720981       0.04801966       0.61502260      -1.03672051
C       23.53715775      15.61790182       5.92058957      -0.33264865       0.18183078       0.38841198      -1.75364876      -0.93770838       0.92702568
H       23.43611740      16.07835284       7.93161332       0.18176333       0.31768210       0.12716454      -0.14712256       1.15520632       0.75742584
H       22.40653042      14.73159345       7.69373299       0.28172655      -0.29802376       0.27645152       0.94077975      -0.31111899      -0.69407296
O       23.04203069      14.58107283       5.03972084      -0.06569055       0.33746969       0.25761424       0.66436374       0.58927304       0.84550005
H       24.55979119      15.96283199       5.75710196       0.08312479       0.08363028       0.06695229       0.18356535      -0.42931229      -0.41788256
H       22.86491739      16.47789226       5.84295883       0.08170992       0.13314008      -0.10379093       0.15538947       0.06478384      -0.21226405
C       22.72099273      15.04530461       3.76726413      -0.12941572      -0.83860358      -0.54542448       2.24602866       0.38091928      -1.26466644
C       21.85044755      14.06321866       3.06107121      -0.33034449      -1.47723737       0.47406783      -0.32586697       0.45670450       0.71130502
H       23.67461289      15.27028129       3.15008239      -0.05503894      -0.26605806      -0.09784938      -1.01413357      -0.70984429       0.60210842
H       22.26960424      16.00972901       3.75470863       0.10733815       0.36713523      -0.06741246      -0.89742464       1.06634414       0.55621070
O       20.68487953      13.77916387       3.79316785       0.39573205       0.75695069      -0.15176406      -2.19847608       1.33017623      -0.05989197
H       21.63196096      14.42368149       2.07110529      -0.38654983       0.07591288      -0.28586697      -0.11397884       0.05237915      -0.68515903
H       22.31721702      13.12771201       3.04537897       0.09175101      -0.21734320      -0.07865905       1.14740944      -1.42306376      -0.53471202
C       19.57684679      14.69011394       3.47002112      -0.98149195       1.03507375      -0.68489936      -0.47610748      -1.92626846      -0.10736910
H       18.70530712      14.40179055       4.12026324       0.45235852      -0.05908791      -0.04501604       0.92722863       0.24777581      -0.38231871
H       19.24948396      14.50142938       2.40057767       0.14936306      -0.17519549      -0.09557159       0.53641212       0.51310962       0.98038745
H       19.78675692      15.73806249       3.64580525       0.06320627      -0.11868527       0.04970835       0.43707937       0.16569531      -0.08081363
H       11.38499725       2.32777192       6.61705301       0.13746230      -0.02608751      -0.07458537      -1.61334956      -0.55876690       0.94666445
C       12.18511221       2.42915538       5.95253022       0.15139905       0.61918713      -0.78062025       0.42240766       1.01199794      -1.82938933
O       11.73284316       2.60029989       4.57949722      -0.52886620       0.73577009       0.62437260       1.12833500       0.95072919       2.10379577
H       12.71025469       3.31605966       6.30799353      -0.36844653       0.26770699       0.10305434       0.09911644       0.28957516      -0.53274614
H       12.86428473       1.62365995       6.05408972      -0.00937611       0.03416407       0.15646435       0.65849686      -1.12423038      -0.00724354
C       11.40426745       1.45218002       3.85310026      -1.08680542      -1.11196193       0.39501577      -0.39982006       0.46074504      -0.63787228
C       10.49157592       2.07060054       2.74543356      -0.65853080      -1.13412577       0.06080301       0.47348487      -2.05243850      -0.83776391
H       10.87178918       0.72581586       4.46981070       0.06690887      -0.00465569      -0.06336723      -0.37321272      -0.08041205      -0.03276745
H       12.30324381       0.90228461       3.49294068      -0.24910216      -0.03462521      -0.06136630      -0.51353627       0.51555085      -0.15667088
O       11.19094732       3.02998034       1.95824006       0.12907553       1.31723051       0.37495409      -0.57835215       0.00150773      -0.08254746
H        9.64736743       2.62664179       3.21291669      -0.05685922       0.12242528       0.25470103       0.50043815      -0.60139400      -0.32192570
H       10.15576087       1.21710196       2.04859649       0.08603751      -0.35763849       0.19389395       0.33680159       1.48566210       1.42034674
C       12.11151272       2.50154896       1.00824036      -0.55379596      -1.12012533      -0.19466694      -0.90087515       2.04107714       0.62510252
C       12.49651610       3.64583861       0.06315319       0.93946327       0.38782173       0.21199694       2.18882132      -1.69258583      -1.75353444
H       11.73756721       1.63559725       0.52892470       0.07527912       0.06263764      -0.22924911      -0.66222113      -0.90618348      -0.66130424
H       12.99208416       2.22930068       1.52494028       0.16349379      -0.10553133      -0.31249620       1.29854023      -0.47809950       0.57703626
O       13.96417134       3.77327139       0.09961661       0.05617002       0.23658005       0.86377814      -0.83617818       0.47434977       0.26344940
H       12.34289850       3.36558891      26.86495139       0.08708470       0.03000324       0.07336330      -0.53998321       0.43087509       1.08481181
H       12.08939555       4.61976443       0.24209099       0.02827781       0.16957301      -0.18001543      -0.51970583       0.16298333       0.38959977
C       14.55066042       2.86294607      27.09531465      -1.07231677       0.37898262       0.57150528      -1.29599118      -0.25049433      -0.78504491
H       14.01141812       2.92176920      26.10296715       0.14196592      -0.37598212      -0.15801883       1.05872834       0.29065165       0.43042073
H       14.35235709       1.81155907      27.35570569       0.05129385      -0.18338845      -0.19224323       0.42046165       0.05373536       0.41369817
H       15.60556376       3.10356810      27.06168335      -0.08896370      -0.01310121       0.34403551       0.20365478      -0.24206764      -0.31333229
H       10.52029984       3.46744462      16.64045323      -0.09705876      -0.09122423      -0.26623398      -0.35489273       0.06949802      -1.38043904
C       10.31028726       3.19177350      15.55406682      -0.27493942       0.09604274       0.33480002       0.02166012      -0.22659361       1.35561919
O        9.48134715       2.03626431      15.63844576      -0.47247943      -1.08027421       1.08017926       0.03874771       0.40429646       0.08699732
H        9.72986615       3.94765619      15.01572279      -0.00343476       0.11523002      -0.15639332       0.44534528       0.33618918       0.20317791
H       11.29683812       2.99120799      15.10375823      -0.03029024      -0.04039088       0.02158885      -0.38205430      -0.02885768      -0.25457576
C        8.88296329       1.66611928      14.37775223      -0.49624161      -0.33808390       0.02926257       0.98405945      -0.24095756       0.90167761
C        7.77867817       0.70327722      14.76388150       0.08389880      -0.39187596       0.38121642       0.96734762       0.09130818       1.50191140
H        9.75507684       1.25943727      13.80969524      -0.31023060       0.19193750      -0.15130645      -1.09526241       0.20904589      -0.35486224
H        8.39628212       2.56162584      13.96814096      -0.23145281       0.02649178       0.28891325       0.35589895      -0.20763454      -0.53230643
O        8.29222188      27.98407205      15.74629910       0.24180520       1.64971242       0.84495039      -0.10696894      -0.54062063      -0.46424487
H        7.29299545       0.21379786      13.96602739       0.15929597      -0.04927900      -0.18788870      -0.21643929      -0.81376958      -1.26172447
H        7.02745768       1.26278129      15.27317512       0.17327000       0.12837044      -0.03081641      -0.62441897       0.73284316       0.37062770
C        7.29471758      27.50133391      16.62486984       1.63829575       0.30551850       0.32649143       0.59839123      -0.69639230       1.35626960
C        7.89266443      26.54966785      17.66875428      -0.05730713       0.09046521      -1.08909504       1.42415047      -0.44729888      -1.48123980
H        6.47519590      26.94043731      16.17728420       0.26261744      -0.13198643      -0.20671315      -0.08280288       0.14722258      -0.52749610
H        6.88004029       0.09754448      17.22376876      -0.08352951      -0.00699477       0.11046004      -0.35390764       0.78832787      -0.15322953
O        9.00490455      27.13614070      18.35890466      -0.45147754      -0.34749826       0.47477369      -0.68445939      -0.28691879      -0.43045259
H        7.12026421      26.29043965      18.36811110       0.10918093       0.35445416       0.28135481      -0.53340292      -0.23942886       0.43018088
H        8.25581808      25.60696242      17.16773898       0.11793693       0.07892464      -0.24152460      -0.35278082       0.69466376       0.44529903
C        9.49625987      26.26190761      19.38746468      -0.00665598       0.36236543      -0.24746164       0.31775934       0.32689440      -1.36402166
H       10.38933579      26.81640366      19.71614791      -0.10339668      -0.16035713       0.26633660      -0.41924667      -0.63855690       0.62185013
H        9.78339814      25.27582609      18.94442124      -0.00413026      -0.05475488      -0.06731318      -0.13689093       0.60857540       0.30320117
H        8.68288839      26.09702597      20.09697129       0.12910594       0.03141404      -0.00969342       0.36019465       0.06408551       0.45703903
H       11.28580868      23.21278846      21.84304769      -0.03223537       0.12620400       0.20017604      -0.80330276       0.67190975       0.71234602
C       10.57391487      23.62878742      22.61748702       0.67203898      -0.71623649       0.81248482      -0.39335641      -0.90236539      -0.39060634
O       10.94523574      23.21483880      23.93664897      -0.36279933      -0.87371097      -0.27385696      -0.71592069      -0.25691891      -0.64574629
H       10.50962426      24.69630160      22.61601951       0.12867454       0.08900134      -0.02033071       0.56107724       0.95355242      -0.33066723
H        9.50947476      23.36358882      22.34410948      -0.06944794       0.01155679       0.09261697       1.14177716      -0.53515607       0.62917876
C       12.01625133      23.93479954      24.48013457       0.29772896       0.00223132       1.27489241       1.23290122       1.29515135       1.20766628
C       13.39214315      23.18253832      24.15784345      -0.18695302       0.09233932      -1.11911220      -0.31396616       0.22206867       0.11213444
H       11.80087309      24.01600863      25.62093222      -0.05348126      -0.01733427       0.04276085       0.46229813      -0.18912515      -1.92461455
H       12.07380465      25.00596466      24.06724617      -0.23774934       0.16011552       0.05437820      -0.16850717      -1.31583488       0.52512294
O       14.64253619      23.87569304      24.16071543       0.56994753       0.96148273       0.33613864      -0.79439950      -0.63254625       0.03918863
H       13.23401094      22.74260614      23.17232333      -0.08676143       0.41917923      -0.06441884      -0.00873354      -0.22767910      -0.17198625
H       13.56090826      22.38097282      24.87298310       0.14934099       0.11448492      -0.00793780      -0.32642937      -0.20312704       0.07800422
C       14.93604398      24.58683198      22.97361479       0.33194460       0.31943756       0.71996368       1.07993472       1.32444084       2.48699403
C       16.30399977      25.28936981      23.29639551       0.44870740       0.32405948       0.43267036      -1.76927519      -0.61060363      -1.03066015
H       14.11840890      25.26251943      22.84484303       0.22148396      -0.00545856       0.11815305      -0.32943505       1.05218112      -0.53541380
H       15.05462474      24.02668176      22.09312039       0.15673977       0.02993808       0.11464584       0.07568964      -1.42570400      -1.14270973
O       16.66168846      26.12247555      22.23143099       0.23631275      -0.03328060       0.53583715       1.50898111      -0.45835528      -1.60388875
H       16.20203332      25.88135990      24.19037225      -0.04727331       0.10981052       0.06764562      -0.08087958       0.35923865       0.41183385
H       17.02907408      24.49656315      23.47747477      -0.04520868       0.32408256      -0.09920560       0.19389696      -0.08103016       0.07267095
C       17.40629839      25.36304209      21.16452413      -0.21034754      -0.62024140       0.20119863      -0.86755103       1.14878917       0.61061454
H       18.07023901      26.06952001      20.60997861      -0.03787096      -0.08928980      -0.02824299      -0.18358959      -0.59372008       1.01809204
H       16.73590350      24.92762612      20.40977674       0.03442991      -0.11678522      -0.27059267      -0.00975486       0.07973123       0.41319156
H       17.86863956      24.51451337      21.67296326      -0.09206093      -0.23742779       0.00869453       0.52866089       0.34894541      -0.31437963
H        4.23746518      14.95487743       6.13942309      -0.00352544       0.07258661      -0.14345191      -0.49889854      -0.45767424       0.16325732
C        4.06033369      13.88315016       5.88897218      -0.64551147      -1.18719953       0.41881337       1.89685953       2.93405366      -0.71418172
O        4.12031433      13.86096734       4.48332821      -0.93200388       1.92401649      -0.09692315      -0.06093642       0.00451391      -0.18662649
H        4.91389510      13.42689669       6.36101048       0.09887072       0.04825516      -0.06622646       0.08128288      -1.07776392       0.18428358
H        3.11293352      13.58830752       6.20213675      -0.07276209      -0.17420534       0.25230303      -1.48940313      -0.70863348       1.04332876
C        3.29337578      12.82848195       3.98332705       0.16819339      -0.16669356       1.21680288       1.90582204      -0.06333717       0.12957139
C        3.61080984      12.62835884       2.53890629       0.64973486       0.49923127      -0.23347527       1.85583174      -0.54574263      -0.95118058
H        2.26440903      13.03625957       4.18842162       0.05171498      -0.05081619      -0.02611040      -0.96216637       0.09943753       0.09041946
H        3.63470375      11.91129817       4.52600881      -0.15270144      -0.10140589       0.03997669      -0.68988484       0.13337147      -0.55632770
O        3.18466632      13.63338321       1.62413996       0.02533603      -0.23520397       0.33328851      -1.12912202       0.00508029       1.81045544
H        3.20277633      11.64833371       2.32158760       0.09330574       0.12549215      -0.07718071      -0.44820997      -0.38955566      -0.71441281
H        4.72864682      12.52471886       2.38845729       0.10711112       0.01349940       0.28033860      -1.08870375       0.06500998       0.59084898
C        3.62806373      13.52535022       0.32189627       0.43936631      -0.56222925       0.20615125       1.07136905      -2.04555941      -0.50590825
C        5.06402951      13.89765562       0.11333395      -0.01416043      -0.33406330       0.51224893       0.94946700       3.24976158      -0.03948066
H        2.99092119      14.16254847      27.63315271       0.04181810       0.06338973       0.05971642      -0.25148425       0.54752308      -0.48430473
H        3.54427646      12.48235823      27.76487738       0.02882493      -0.05284452       0.16303427      -0.38263950       0.84974271       0.64229357
O        6.01647804      12.96463323       0.48772508       0.47178652       0.13750341      -0.95859787       0.31151554      -1.25868320       0.00494033
H        5.26522358      14.19393113      26.95829050      -0.11371564      -0.03923091       0.03548552      -0.47011778      -0.37715068      -0.47047639
H        5.36975434      14.87683320       0.61895351      -0.28758101      -0.09246132       0.28150906      -0.92372245      -0.80069727      -0.04254920
C        7.27421732      13.39434758       0.06819134       0.35647295      -0.07070571      -0.13032835       1.12015867      -0.56619388      -1.09028220
H        7.54363896      14.34456910       0.50792563       0.12549265       0.08768918       0.23618649       0.21480215       0.34056458       0.52112383
H        7.35770995      13.55210433      26.85844004       0.14331081      -0.09735140      -0.34102762      -0.62877923       0.07436619       0.00477460
H        8.05815192      12.63279953       0.21668426       0.33177402      -0.03517854      -0.06892885      -0.60288465       0.17448035       0.61424619
H        7.50409649      15.58573835       5.18871718      -0.06470110       0.08954977       0.23967218      -0.02456373       0.05076004       0.79573798
C        7.46948386      16.51351602       5.78492380       0.45192751      -0.72623291       0.74221300      -0.37355477      -0.04591219      -0.91407281
O        6.83683812      16.40787676       7.06146708       0.40031804      -1.14602412       0.26137801       1.24118555       0.41623685      -0.67545801
H        8.46060084      16.94259889       5.87817071      -0.09568800      -0.22061746      -0.04854720       0.41908666      -0.27565849       0.03237187
H        6.89309695      17.22259845       5.20621056       0.07630129       0.06654841      -0.13424625      -0.19327287       0.31868231      -0.33580685