2312
Lattice="27.726339488031638 0.0 0.0 0.0 27.874355423685603 0.0 0.0 0.0 27.45204856888643" Properties=species:S:1:pos:R:3:momenta:R:3:forces:R:3 Origin="-14.09105 -14.09105 -14.09105" charge=0 spin=1 energy=-1360785.6443326138 stress="0.004243293311446905 -0.0014299771282821894 0.00015123120101634413 -0.0014299771282821894 0.005387228913605213 -6.346614827634767e-05 0.00015123120101634413 -6.346614827634767e-05 0.0034971667919307947" free_energy=-1360785.6443326138 pbc="T T T"
H       14.44417599       8.44464101      27.02276723       0.12868625      -0.13400675      -0.36612682       0.22257802       0.23349397       0.56847388
C       13.86368744       8.42628946      26.12003662       0.73457224      -0.25804456       0.05071541       0.30860987       1.18083465      -0.82303047
O       12.59588826       8.98300453      26.37999323      -0.56876674      -0.10799352       0.73179337      -0.94068563      -0.44167584      -0.81111348
H       14.37937139       9.01769469      25.34055856      -0.23549244      -0.09941753       0.17540539       0.04601287      -0.02368261       0.31409928
H       13.91122154       7.41252632      25.75860877       0.21092325      -0.21079046      -0.21588125      -0.69531912      -0.78594315      -0.19809182
C       11.78684426       9.14016819      25.15297170       0.58106916       0.49256370      -0.65599593       1.37924314      -0.56237358       1.99156749
C       10.37969828       9.46859792      25.47475858       0.34929187      -0.43720147      -0.00891614      -1.08989382       0.12105639      -0.87511712
H       11.85572984       8.22978800      24.57297574       0.11745462      -0.06443143      -0.12930070      -0.15273307      -0.37294498      -0.25844595
H       12.22272083       9.93013370      24.59136248      -0.12985170       0.04146331       0.08306761       0.47526795       0.85854650      -0.67981482
O       10.26028331      10.60787339      26.23710800       0.69363378      -0.24686661      -0.33508488       0.90043956       1.41401136       0.24322999
H        9.89619305       9.60927422      24.50013379       0.19333110       0.18158307      -0.24081685      -0.01891056       0.14445217      -0.15125374
H        9.82654036       8.67413749      25.92575935       0.08212858       0.17930335      -0.15473085      -0.22315483      -1.08926010       0.58720541
C        8.98136210      11.15357515      26.49263861      -0.18225139       0.79649122      -0.24401217      -0.67174304      -0.27189347      -0.45800260
C        9.22458833      12.34174452      27.35184391       0.53526295       0.25993553      -0.37278202       0.76381081       1.40448666      -1.32170677
H        8.39624573      11.47554351      25.61080027       0.12457228      -0.14510721       0.14712894       0.40726554      -0.39537117      -0.12776154
H        8.41080759      10.42719270      27.05196144       0.42561516      -0.07277850       0.26645704      -0.45790508      -0.28627473       0.09647030
O        9.69422414      11.85715062       1.12560807       0.10312352       0.65589939       0.52552893       0.51290309       1.00485408       0.40600252
H       10.04010726      12.89175741      26.75365106       0.17748977      -0.16869941       0.14085766      -0.83844495      -0.35827306       1.09900093
H        8.37777652      13.08169544      27.43089744       0.09703193       0.06166096      -0.22180431       0.44590110      -1.01222694       0.15194885
C       10.95871633      12.40829830       1.45837541      -0.16769982       0.40562241      -0.50539092       0.15081714       1.56703365      -0.32839906
C       11.36730609      11.84643510       2.77291486      -0.91568252       0.40698508      -0.43644321       0.13294280      -0.69080669       0.76562589
H       11.71454438      12.17994143       0.72373031       0.21412503      -0.12194525       0.03830867       0.17756070      -0.95622391      -0.54386550
H       10.99684574      13.54743055       1.36852976       0.21278900       0.22934992      -0.15687308      -0.63708931      -1.20960426       0.87311178
O       10.56586362      12.43345346       3.81513693       0.59319368       0.21766394      -0.60760896       0.65236646      -0.41253957       0.49196318
H       11.18500517      10.71453665       2.69021577       0.19380940      -0.19810029       0.11747674       0.31105220       1.33312333       0.44295484
H       12.45096995      12.03175042       2.98997585       0.14132282      -0.12747722      -0.02608861      -0.73875451      -0.18369523      -0.31527585
C       11.24100335      12.46624232       5.08306370       0.01622935      -0.15472640       0.38885352       1.35094893      -0.63062340      -1.21910059
C       12.51141845      13.35160072       5.10658875      -0.70165956      -0.12689157      -0.19566690      -1.83939815       1.62361670       1.12917686
H       10.52842713      12.65694755       5.85375683       0.19832025       0.22451126       0.16193294      -0.59312922       0.79396600       0.33493027
H       11.66004763      11.48994273       5.39384591       0.23695266      -0.03512702       0.11398569      -0.30139369      -0.20205113      -0.45883867
O       13.64219504      12.59764249       5.12606645      -0.14458830       1.82782884       0.51074218       2.04300117      -1.30931604       0.14650099
H       12.63204341      14.09895596       4.30795621      -0.10198174       0.03343608      -0.11743247      -0.88269186      -0.10781200      -0.06690095
H       12.47851838      13.92514506       6.06570440       0.14007030       0.11283781      -0.23619714      -0.13497193       0.07474221      -0.39779520
C       14.79842592      13.43664777       5.06664174       0.55599903      -0.46524583       0.25780880      -1.08353734      -0.31648988       0.63370430
H       15.65237564      12.76252770       5.08979579       0.10634778       0.37553623       0.26135715       0.08455733       0.40915912       0.07127402
H       14.77432272      14.19827759       5.88848718       0.25357585       0.36197234       0.04137065       0.21797340      -0.73477459      -0.29925010
H       14.72234252      14.00552447       4.15190022      -0.18190487       0.05367612       0.23456667       0.44618201       0.18039495      -0.57730478
H       16.75721218      24.94458223      13.12613934      -0.30755922       0.24620541      -0.09911579       0.58626890       0.25566667       0.05837615
C       17.48794646      24.43909763      12.46739835      -1.40297677      -0.04098607      -0.56432894      -0.94265896      -0.70718086       0.85127890
O       18.81402355      24.86948448      12.67725424       0.44265192      -0.28826002       1.22138088       0.71715170      -0.17466681       0.23545766
H       17.17517850      23.37442533      12.59761730       0.17953411       0.01336096      -0.21382511       1.15447128       0.26488581       0.04778862
H       17.20763328      24.69169782      11.47913674       0.09434754      -0.18660373      -0.31962606      -0.34442550       0.32259554      -1.25356305
C       19.88791923      23.93948821      12.96493075       1.24317854       0.61454192       0.50138116      -0.19316910       1.35947526      -0.67719114
C       21.20316064      24.50492723      12.36560250       0.91194587      -0.09303420      -0.06403401      -0.81470299       0.62904418      -1.16367447
H       19.64988285      22.98882592      12.54357485       0.11688680      -0.14283200      -0.11468434      -0.13998832      -0.97198892      -0.14342125
H       20.00089662      23.90469272      14.03559620      -0.08432709       0.15667999       0.21592575       0.15112717      -0.43489176       0.49524978
O       22.34781351      23.77325262      12.71822592       0.44714534       0.33624548      -0.02951376      -0.09521100      -0.02664699      -0.48335660
H       21.14934460      24.61783205      11.24696278       0.00387444      -0.24865116      -0.23048197      -0.28378752      -0.39535871       0.77781957
H       21.29175766      25.53917528      12.69570927      -0.13038626       0.09921871      -0.08676093       0.16150410      -0.19130126       0.24705085
C       22.85281428      22.95280842      11.65416944      -0.32986463       0.39877837      -0.45875379       1.20458210       0.59149003       0.92278433
C       24.03068179      22.16365035      12.18756638       0.56822445      -0.22953212      -0.75183225       0.17018753      -0.33869591      -0.18741755
H       22.19204980      22.21026009      11.31435773      -0.08060401      -0.05358917       0.09882066      -1.58641934      -0.88955986      -0.38186002
H       23.14251510      23.48820970      10.74415029      -0.16827956      -0.04137092      -0.01850776       0.06675658       0.46907037       0.46988034
O       23.59910889      20.87807669      12.74786584       0.04475408       1.16850080       1.09735710       0.62602925       1.42510509      -1.03588450
H       24.62719348      21.91844498      11.29490965      -0.03411313      -0.16787409      -0.21483639       0.22728495      -0.01819931       0.59045208
H       24.59131676      22.77240909      12.95670006       0.13120011      -0.20763707       0.24982558      -0.34538227      -0.73313171      -0.80028296
C       22.70209466      21.14771315      13.76269224       0.09759586       0.15482778      -0.44215458       0.56785530      -1.01941216       3.96410584
C       22.60476193      19.91468773      14.74406867      -0.05089741       0.76325240      -0.51260346       0.17537716       0.74660677      -1.19872868
H       23.12511078      21.96412066      14.43341966       0.01327126      -0.15206609       0.06850109      -0.78206962      -0.48111567      -0.83460701
H       21.67656305      21.35283471      13.48803794       0.23758028      -0.08450285      -0.04307472      -0.23869491       0.47849363      -0.52703315
O       23.67490512      19.80238237      15.64294546       0.67793498       0.18131119      -0.44193931       1.47558320      -0.48209646      -0.72665489
H       21.82963706      20.05353627      15.47039143       0.17650854       0.15255500       0.01098348      -1.27100503       0.21783377      -0.28573170
H       22.43950252      19.01483582      14.12488694       0.27348087       0.05173925       0.19325428       0.00295349      -0.02576562       0.38574940
C       24.89267418      19.36183321      15.08102031       0.02953246      -0.29907824       0.92146858       1.79257798      -0.14564680      -0.73955208
C       24.96353895      17.89553474      14.59313306      -0.68669749      -0.35266178      -0.37533084       0.93969190      -0.62179387       1.71118259
H       25.29158960      19.96686397      14.20508654       0.20215421       0.20762545       0.09918353      -0.83392215      -0.25218111       0.89210045
H       25.66206064      19.47748602      15.86963491      -0.09933421      -0.00034506       0.12176555      -0.45751402      -0.07952251      -0.16642022
O       24.60132255      17.02157936      15.71873657      -0.30084370       0.05943882      -0.13929627       0.62309837       1.96916807      -1.24107850
H       24.26870240      17.68388336      13.78642022       0.07234332       0.24466474      -0.16143464       0.01618960       0.07120790      -0.33687499
H       26.06071749      17.64854245      14.27633795       0.00533431       0.02761146      -0.16373884      -1.81333542       0.53785014       0.31849614
C       23.79709227      15.96029080      15.33515918       0.44473839      -0.28148773      -0.17219619      -1.02632713      -1.85978246       0.60362762
H       23.29596594      15.60072062      16.26454992       0.00199842      -0.15534739      -0.15930630       0.33127081       0.08363797      -0.71693033
H       24.41022076      15.12450358      14.95197271      -0.20150187       0.05422719      -0.25916721      -0.33178067       0.20630473      -0.13820326
H       22.97370387      16.17130807      14.60909343      -0.16886767      -0.05919833      -0.17965661       0.63086504       0.31011093       0.30431044
H       11.86711431      25.71940416      18.55488648      -0.14354764       0.01212738      -0.14638414       0.29223052      -0.61203778       0.35482490
C       11.30113138      24.78178367      18.75503814       0.48900243       0.77594012       0.28695653       0.08675674      -0.62416339      -1.04680848
O       11.02710505      24.53271686      20.09974197       0.44902552      -0.48163862       0.55202506      -0.17952649       0.91687602       1.08941877
H       10.37188307      24.93706694      18.19314699      -0.22516451      -0.17485163       0.03063234      -0.22256866      -0.18056749      -0.10549156
H       11.79285934      23.83823235      18.34206387      -0.26168538      -0.07160363      -0.22321844      -0.34981921       1.48088026       0.42005390
C       10.41226437      25.66605322      20.78961836      -0.65379639      -0.24600110       0.71485524       0.46540594      -0.45870638      -1.18726623
C       10.26895745      25.29390159      22.24796314      -0.07894478       0.37486773       0.29833916      -2.26073551       0.16242509      -1.04313481
H        9.43670254      25.90235966      20.23236150      -0.09558048      -0.14384958       0.12158575       1.18424797      -0.07270344       1.12060964
H       11.09374312      26.54556041      20.73477409      -0.12902419      -0.10712699      -0.02376248      -0.53939140      -0.49590945      -0.12831619
O        9.37209652      24.18468953      22.37010591       0.69209951       0.18999587       0.11489164       0.00643185       1.36854708      -0.81436282
H       11.17045937      25.05347231      22.71053635       0.07349342       0.17802849      -0.12192027       2.02885723      -0.43528253       0.41293228
H        9.88084967      26.16344404      22.78690433      -0.25239527       0.04159025       0.08222997      -0.13712087       0.05470425       0.03541211
C        9.69426799      23.34024838      23.42175446       0.47859758      -0.30469308       0.42177401      -0.50009966      -1.05649519       0.21864572
C       10.55802275      22.21991311      22.89747635       0.21260366       0.37457705      -0.74803760      -1.11517406      -1.59855688       0.57260430
H       10.11033890      23.89850070      24.26107820      -0.03703648       0.37002383      -0.12880831       0.00497831      -0.26245978       0.13362984
H        8.77571702      22.85159355      23.69622396      -0.12919774      -0.14957802      -0.21027449      -0.37905070       0.25301450       0.73826617
O       10.74442118      21.13394380      23.89886135       0.85746860      -0.05352084       0.34472045      -0.19683446       1.35813534      -0.81423587
H       10.12354604      21.78925606      21.95870838       0.03681799      -0.02727176      -0.14856395      -0.19021788       0.15891135       1.09807420
H       11.44667288      22.64578494      22.56995238       0.08754712       0.23802237       0.09219079       2.36702371       0.44584855      -0.32705101
C       11.76027450      21.45898078      24.84466653      -0.95150331      -0.30336276       0.36836780      -0.41944948      -0.18496732       1.50739622
C       11.62085935      20.47221948      26.09745939       0.24896657      -0.12657401       0.09466597      -0.05749449       1.23478580      -0.77930516
H       12.73437989      21.25806508      24.37890722       0.17677876      -0.07135326      -0.03738758       0.03983007       0.45771444       0.22721031
H       11.64866543      22.53495949      25.20819326       0.06605247      -0.04024908      -0.12415669       0.40303621      -1.25682402      -0.44325680
O       12.65484251      20.76710772      27.04965172       0.18153510      -0.18137992       0.03614708      -0.27681488       0.05294053      -1.52880633
H       10.64323527      20.57791319      26.59405508      -0.18520998       0.23902975       0.01646415       0.00982969       0.24866335      -0.27899945
H       11.63329030      19.44268079      25.71849226      -0.00108910       0.10592586      -0.30398468       0.49237287      -0.10039183       0.12667155
C       12.44930699      20.11553126       0.82017384       0.93158558      -0.05531394       0.51933275      -1.58105624       1.76199484       0.15219338
C       11.53238902      20.97708662       1.73715065       0.35165292      -0.31762117       0.25825331      -0.73911297      -3.23614025      -0.40738103
H       12.07614580      19.15523841       0.63503619       0.23177694      -0.07365662      -0.04920600      -0.78980666      -1.65308547      -0.02089836
H       13.34698666      20.02789903       1.33781280       0.16132708       0.05727856       0.09113120       1.81100345      -0.31428984       0.61555380
O       11.10372807      20.14276253       2.85767900      -1.14032456      -1.14161104      -0.48612318       0.53533238       1.75956297      -0.27559128
H       12.14378132      21.74527426       2.09179849       0.08923436      -0.14245508       0.09404536       0.46710131       1.48203242       0.79960066
H       10.67780365      21.30876637       1.15614750       0.02999701      -0.02293701       0.14109798      -0.23672488       0.43954185       0.11636881
C       10.00180297      19.33981580       2.58364717      -0.08772918       0.63822171       0.00418687      -0.09807990      -0.24312545      -3.02421904
H        8.97229859      19.80130467       2.61272878       0.16771393       0.03753885       0.07264390       1.23491824      -0.17011233       0.56692278
H       10.14409760      18.47158388       3.16284546       0.10838672       0.11106124       0.17780930      -0.51843435      -1.00169432       1.18503344
H       10.11860376      18.93113941       1.51002885      -0.40024769       0.09078861       0.11932731      -0.41792098       0.48777074       1.12704492
H       26.67415103       6.14379520       1.84313042      -0.31178646      -0.11226190       0.10037650       0.29545090       0.23813510      -0.15535410
C       27.44474378       6.69226399       1.26053412      -0.02744126      -0.66593398      -0.19141354      -0.92751276      -0.28197438      -0.49966767
O        0.55989925       7.44874762       2.08169755       0.19107952      -0.54960708       0.61614424       0.47585857      -0.15553780      -0.34656602
H        0.30114088       5.96974236       0.67792999      -0.03163982       0.08794844       0.19348344       0.03475770       0.20940688       0.20167376
H       26.92294080       7.34026276       0.56051586       0.04851168      -0.01249314       0.29514666      -0.12082246       0.04821862      -0.26907954
C       27.68324703       8.59495399       2.63991614       0.41493897      -0.08134581      -0.63243968       1.00670278      -0.47394603       0.77074987
C       27.66513906       9.84806256       1.78681600       0.12231525       0.76086543       0.04686376       2.47794509       1.69195592       2.35850716
H        0.58941117       8.70194462       3.54453435       0.13583790      -0.28011361      -0.02351808      -0.57174140       0.71281350      -0.29325432
H       26.67256674       8.33646349       2.95665221       0.11610926       0.04677207       0.02987310      -0.28735888       0.16109817       0.01176250
O       26.57971922       9.90506115       0.99943959      -0.62133420      -0.75104434      -0.20986600      -2.45249891      -0.99106717       0.00013465
H       27.70214380      10.76258214       2.52195035      -0.04457747       0.07443043      -0.03913939      -0.22826563      -1.30514991      -0.95031619
H        0.86896406      10.02111841       1.18897888       0.05593270      -0.03849141      -0.10409545      -0.23149164      -0.59509337       0.28616294
C       26.50372199      11.05848150       0.27346855      -0.55708956      -0.23264707       0.06204074       0.87171501       1.42275977      -1.15866756
C       25.14411331      11.33857568      27.14819141      -0.38313279       0.25722572      -0.30528259      -0.34070343      -0.39876989       0.33960274
H       26.83674158      11.97561233       0.77134352      -0.07340049       0.03795653      -0.19282003      -0.11513069      -0.13168499       0.83896399
H       27.25766214      10.97086446      26.92758693       0.10965316      -0.05373838       0.16454668      -0.27638704       0.16410305      -0.49336386
O       25.28640741      12.54885186      26.49302754       0.03666852       0.35415536      -0.00630405       0.85921741       0.92510319      -0.75747257
H       24.93473830      10.54797140      26.42712194       0.01747977      -0.04302006      -0.03598185      -0.63158578      -0.25985032       0.04188352
H       24.34045900      11.50359241       0.44183195      -0.00180977       0.03510293      -0.03027725       0.34853220      -0.87310803       0.05269907
C       24.14005981      13.03905658      25.85865977      -0.86454673       1.02082531       0.24765986      -0.32318503       0.70572978       1.89700460
C       23.59695695      14.25742848      26.61358416       0.32455755      -0.09435190       0.36878101       1.63119447       1.30610001      -1.60284090
H       24.38101218      13.25297780      24.87219202       0.07856225      -0.01770630       0.15967363       0.52263409       0.81356859      -1.93912899
H       23.35559712      12.32536587      25.80154075       0.17796582       0.02351921       0.34755187      -0.80512422      -1.04553270       0.22580582
O       22.30580490      14.48117683      26.12486701       0.25796883       0.14511503       1.43859877      -0.87340826      -0.02326520       0.00969552
H       23.65851186      14.08157457       0.21745949       0.05956114       0.19090230      -0.02768407      -0.26590863      -0.21660501       0.88302231
H       24.24176267      15.18454767      26.39374398      -0.05874831       0.09392625      -0.39031562      -0.69050360      -1.26487052       0.41600302
C       21.57129197      15.46149075      26.83579853      -0.66486907       0.47794847       0.29907709       0.24336854       0.98970675      -2.24807382
C       20.20870694      15.68423310      26.04894308       0.68733975      -0.24251431       0.42183509       1.95943749       0.81537831       0.92683715
H       21.41326812      15.14647464       0.37722468       0.17192865       0.01120096       0.20802272      -0.39496896      -0.43867424       1.48158264
H       22.19165768      16.43808250      26.87965492      -0.03066469      -0.09751054       0.18013645      -1.13629937      -1.19545114      -0.13587758
O       19.51564952      16.71783750      26.71739196      -0.40449251       0.36969212       0.20056279      -0.73465955      -0.05576919      -0.24538228
H       20.49674144      16.14818358      25.09925181      -0.20825662      -0.13004893      -0.01981527      -0.09347243      -0.30042639      -0.12430782
H       19.65241742      14.75980268      25.83383075       0.23721508      -0.13155448      -0.00620914      -0.00316248       0.13235742       0.45916259
C       18.67186361      16.41668768       0.37081282      -0.09240549      -0.88860149       0.19054875       0.33568865       1.23040521      -0.23749202
H       19.21901214      16.08006402       1.23649202      -0.05081842       0.29570066       0.01113266       0.43307912       0.17244233       0.40404940
H       17.95055387      15.64160237       0.18322377      -0.09190652       0.06032277       0.11792759      -0.61718327      -0.34079519      -0.60155153
H       18.17273059      17.40283528       0.56250989      -0.00595872       0.19512378      -0.45556690       0.23592740      -1.06859803       0.23385715
H       19.00496545      14.21062133      14.01175159      -0.15354162       0.01153853       0.12521082      -0.85331154      -1.35459709      -0.04476004
C       18.21279079      13.39695864      13.92256681      -0.66478159      -0.97817614       0.89560174      -0.10095513       0.97122580      -0.73906791
O       17.05454163      14.05503344      13.37081025       1.06919313      -0.43704081       0.33130037       2.50382900       1.48202002       0.84305918
H       18.48283412      12.59350460      13.19199688      -0.32465440      -0.35704834      -0.12584235       0.22096169       0.50192696       0.83463407
H       17.94602680      12.99344042      14.92037417       0.06313181       0.22101229       0.13184936       0.37128261      -0.02657465      -0.42020088
C       15.99644012      13.23525846      13.20045199       0.88300093      -0.72534950       0.70151935      -1.78135121      -0.25948206       1.67937875
C       14.76941407      14.08200359      13.07348485       0.65495274       0.15684467      -0.53150787      -1.15923476      -0.21740592      -0.64947546
H       15.80903086      12.58230698      14.08223159      -0.05830819      -0.12752106       0.11716923       0.23814563       0.06405028      -0.24953856
H       16.13240658      12.61113287      12.36628723      -0.19255400      -0.16375711      -0.16979401       0.03689927      -1.14152849      -1.46118438
O       14.79016357      14.83111985      11.83269430       1.37031102      -0.43877323      -1.00576681       0.42888728       0.46319875       0.88655084
H       13.88628625      13.36486695      13.04184802      -0.24970168      -0.02825367       0.06073275       0.82213563       1.00084746       0.07794145
H       14.66816372      14.75815643      13.95792207       0.15899758      -0.13293815       0.13043075       0.05631965      -0.50210530      -0.70672452
C       14.79412136      16.26801698      11.96143467      -0.04277919       0.37090063       0.31533338       0.08395861      -0.01960098       0.22062874
C       13.45547243      16.80077632      12.55238094      -0.59261838      -0.53661706       0.45609787       0.34820950      -1.19760370      -0.13781561
H       15.64542578      16.62792410      12.62255880       0.32501531       0.18859261       0.18963782      -0.71433663      -0.43714747      -0.62745553
H       14.99451706      16.63022358      10.91451181      -0.11542796      -0.00304271       0.27975212      -0.40874425      -0.14569224       1.03386259
O       12.30003568      16.37375690      11.89990177      -1.09983671      -1.03086946       0.03340805      -0.35950208       0.24439496      -0.47705474
H       13.28716349      16.51742982      13.57549870      -0.08197597       0.03196860      -0.25971239       0.65507382      -0.69654363       1.05687404
H       13.43819939      17.85612265      12.66287794       0.19000299       0.00066433      -0.01934963       0.13487132       1.34107888      -0.67315739
C       12.00091749      14.98533323      12.06608107       0.30382766       1.22463749       0.51680673       0.87910575       0.28562117       0.18200620
C       10.73970884      14.71578268      11.34881088       0.55724032      -0.31779367      -0.04526536      -1.44199359      -0.33885777      -0.28895018
H       12.71975885      14.45684400      11.43861748       0.18289296      -0.14546325      -0.11422585       0.16845293      -0.44506624       0.72152555
H       12.05831620      14.66497126      13.18324105      -0.15526814       0.05339503       0.04206902      -0.34849396       0.52167553      -1.72477877
O        9.68165613      15.42996761      11.95046594      -0.64448935      -0.82862158       1.03256405       0.31040218       0.16963229       0.30766416
H       10.82117743      15.01189599      10.29041296      -0.08954512      -0.08510138      -0.05771982       0.18058711      -0.02475406       0.28042936
H       10.60533349      13.61221454      11.35229013      -0.04151137      -0.20320128       0.01849126      -0.28776944       0.29987195       0.09420881
C        8.37068715      15.34042218      11.39790945       0.56952195       0.27088846       1.20753790       2.05312777       1.29520702       0.67052013
C        7.61697526      16.50680041      11.95062726      -0.72906140       0.24862853       0.41349769       0.75680858       0.85958576      -0.72680616
H        8.40842528      15.29634660      10.31459540       0.01537211       0.15119789       0.05048700      -0.21336004       0.27269146      -0.18000947
H        7.96021295      14.47106240      11.78136467       0.08714607       0.09314321      -0.06230264      -1.29031897      -2.12011862       0.51689494
O        7.35413171      16.42163044      13.30708534      -0.46781219      -0.38012923      -1.10824222      -0.11675493      -0.26572609       0.61276090
H        8.14406960      17.45066303      11.75376294      -0.03970430      -0.17212629      -0.14110777       0.36060035      -0.06027571      -0.15681164
H        6.73672436      16.57260632      11.37559250      -0.03795447      -0.11202587      -0.20205471      -1.68545389       0.12740885      -0.68749666
C        6.64601715      17.56355685      13.76840790      -0.90060197       0.11681884       0.27990009      -0.31083119      -0.47460303       0.33705911
H        7.23400104      18.49184960      13.62938425       0.09980758      -0.18294781       0.11446240      -0.17541490      -0.49643502       0.22310871
H        6.47170276      17.36071827      14.85671468       0.02889415       0.10511853       0.07384142      -0.05375119       0.51351768      -1.01752269
H        5.70129092      17.67002731      13.18221064      -0.15086616       0.24663354       0.09461115       0.30291209      -0.08500303       0.48926574
H       18.93333725       5.66469241       9.56179942      -0.09814505      -0.09867087      -0.16653989      -0.26045972      -0.42603096      -0.37988204
C       19.72926250       6.15262640      10.08810377      -0.71434609      -0.09111991      -0.54572208      -0.82413745      -1.76583707       1.12135804
O       20.25974451       7.08289621       9.25587335       1.57055161      -1.01258486       0.64941657       0.45000297       2.36843848      -1.43071544
H       19.23605885       6.45978224      11.00823115       0.07110232       0.06312236       0.25332458       0.24455908       1.04329419       0.35669994