2018
Lattice="28.463903044718744 0.0 0.0 0.0 27.0048659478396 0.0 0.0 0.0 25.8673528353877" Properties=species:S:1:pos:R:3:momenta:R:3:forces:R:3 Origin="-13.962 -13.962 -13.962" charge=0 spin=1 energy=-1111644.75917432 stress="0.0017677072901278734 0.0007184100104495883 0.0004636296071112156 0.0007184100104495883 0.0024293370079249144 0.0007976265624165535 0.0004636296071112156 0.0007976265624165535 0.00032655842369422317" free_energy=-1111644.75917432 pbc="T T T"
H        5.91733408      23.37225452      15.05805841      -0.01228787      -0.00639006       0.08761829       0.26296094       0.02087910       0.26516739
C        5.90661448      22.70669865      15.94085485       0.06903148       0.12922570       0.86860853       1.72596657       2.01534295       0.58395940
O        4.97020615      23.13442649      16.87257575      -0.08546492       0.10049359       0.74473678      -0.30038720       1.06151783       0.73060089
H        5.54577904      21.81526992      15.61619628       0.02958150       0.24484395      -0.02637210      -0.49586147      -2.98671913      -0.93509853
H        6.92927211      22.63585683      16.43273991      -0.13759618      -0.15833388       0.02723402      -0.92428917      -0.01757481      -0.86989558
C        5.23957727      24.44900230      17.28594136      -0.22376465       0.01049632       1.10932893      -0.10060005       1.06956708       0.10911141
C        4.36085615      24.76467882      18.48994107       0.30277494       0.53407270       0.58849998       0.53899276       1.18021679       0.24157134
H        5.19414999      25.16745646      16.40192740       0.01450331      -0.16716477      -0.11808585      -0.42248276      -0.57169849       0.98904461
H        6.22901011      24.61957817      17.71811876      -0.08485324       0.08039631      -0.20231364       0.55354846      -0.57631785      -0.37000301
O        4.94623516      25.87564160      19.22873297      -0.07176718       0.03619909      -1.17233140      -0.42987132      -0.34204850      -1.58293986
H        4.43042390      23.95786307      19.20631234       0.02357949       0.19241925      -0.13043257      -0.39287138      -0.81645048      -0.14231783
H        3.32366863      24.98471064      18.21233799       0.01414337      -0.02625890      -0.18631812       0.29211336      -0.03916241       0.10525534
C        4.01743476      26.40053216      20.13268868       0.54718900      -0.10330276       1.00809747       2.01834059      -0.48370922       1.62007439
H        3.79336769      25.67488220      20.90267574      -0.05710945       0.02325811       0.29576373      -0.66005439      -0.87917620       0.14781563
H        3.12142126      26.73661835      19.68128250      -0.10568363      -0.33680074      -0.08500308      -0.86087209       0.81617850      -0.46342039
H        4.57741580       0.09068230      20.76995657      -0.35687694      -0.08605509       0.09422531      -0.35683650       0.75769782      -0.68568248
H       16.20827727       2.78738093       9.34052626      -0.01756741       0.06710897      -0.23245282      -0.58250368       0.10398585      -0.42766687
C       16.85139722       2.58828279       8.48325472       0.55856098       0.40143390      -0.15409055       0.67837667      -0.05580948       1.02906585
O       17.73017477       1.58705897       8.99874639       0.26382890       0.63276274      -0.11728457       0.56005400      -0.15117881      -1.18948114
H       16.32864910       2.16457212       7.59195763       0.04784071      -0.19633088      -0.15644715       0.20577085       0.86994171       0.46316645
H       17.45445945       3.53011208       8.34176826      -0.14937155       0.06488094      -0.17352263      -0.72205985      -0.74195850      -0.62783629
C       18.57891688       1.15653979       7.90609692      -0.33194589      -0.34138734      -0.05635962      -0.04903678       0.10739449       1.69659781
C       19.55515509       0.11142223       8.37653472       0.37971614      -0.47166645       0.11302858      -0.16726063       0.65153509       0.44601959
H       19.23188506       1.97251034       7.60754828       0.02776845       0.07817955      -0.06793211      -0.17623642       0.49170941      -0.50878173
H       17.93511256       0.79264400       7.11456630      -0.16944796      -0.17901513       0.17255334       0.14226568       0.00419187      -0.45144480
O       19.00711405      25.99619554       8.95176639      -0.66287378      -0.24389544       0.20833840      -1.11591542      -1.83460414       0.99319100
H       20.21720942       0.51400407       9.14950644      -0.19325069      -0.11300675      -0.13967232       0.41591230       0.46596208      -0.56647938
H       20.07216491      26.81516979       7.48148652      -0.28160747       0.10909332       0.12231508       0.71267998      -0.21972917      -0.34424788
C       18.87425352      26.07697302      10.40110493       0.01917575      -0.98468270       1.39311914       1.48901546       0.23560779      -1.80337214
H       19.85076902      26.49796348      10.70688299       0.13258214       0.07488952      -0.10903527      -0.38445044      -0.24279650       0.52169430
H       18.78496990      25.04417314      10.76338709      -0.29334859      -0.16380665       0.04087376      -0.40367073       0.49368805       0.02821908
H       18.10252927      26.80891341      10.61596932       0.13705904       0.18932832      -0.15031644      -0.38062337      -0.29485595       0.50163382
H       23.85211837      17.60736531       5.96970861      -0.18890634      -0.06012851      -0.01872299      -0.32535291      -0.65328717       0.12232922
C       24.56719260      17.79870118       5.17771078       0.44885856      -0.82566842       0.20753269       0.13442382       1.35446584       0.61731297
O       25.69018595      18.40812618       5.80739633       0.75109405       0.10248451      -0.13290916       0.14323567       1.06502283       0.56942904
H       25.00941560      16.91382490       4.77809565       0.21717405       0.08563210       0.17380346      -0.46430594      -0.63974166      -0.80641669
H       24.00322991      18.46759125       4.49331188       0.05028479       0.07143193      -0.31240420       0.76322836      -0.36863068      -0.12632962
C       25.29939278      19.42054468       6.76694207      -0.82142568      -0.07799024       0.77583325      -1.84734178      -1.20711374      -1.54880536
C       25.05626483      20.77818228       6.14753081       0.11676516       0.76466388       0.97124875      -0.90895653       0.17701127       1.26390696
H       26.03719808      19.52098956       7.51456620      -0.07023848       0.19245814      -0.03729495       1.05678833      -0.18446489       0.82495916
H       24.34720560      18.99376957       7.20264467       0.00404990       0.18456538      -0.00526014       0.78459573       0.93866694       0.14915822
O       23.70539751      20.88246512       5.66671466      -0.04484362       0.77850189       0.56656676       0.39304820       0.33372375      -0.30988196
H       25.75552411      21.00850093       5.38464995      -0.10281507      -0.07482155       0.18802478       0.70885181      -0.25643769      -1.34644938
H       25.32371284      21.56368413       6.89287312       0.04033325       0.22694948       0.03457799      -0.80812430      -0.26199353       0.03449227
C       23.50915101      22.20601870       5.16070672      -0.51843445      -0.01076244       0.61751491       1.43222475       0.60548604       0.89236647
H       22.55192230      22.39172292       4.70302328       0.08618349      -0.14103564      -0.16164252      -0.62848645      -0.49182692       0.14851035
H       24.26690396      22.46805936       4.39201558      -0.05428101      -0.06111349      -0.19097660      -0.18539429      -0.20318717       0.38973173
H       23.66379571      22.87435459       6.04544843      -0.13707821       0.02290940      -0.54429305      -0.26993591       0.05610272      -0.81136131
H       17.39765043      13.27532487       4.39110180       0.24768245      -0.24443346       0.06271553       0.12598805       0.48386016       0.21346302
C       17.51319628      12.69189835       5.30707016      -0.23200407       0.33448307       0.40656994      -0.10736584      -1.68028641      -0.01757086
O       16.50180755      12.94979987       6.28700572       0.32164465       0.15616881      -0.99070123       0.76717657      -0.29656139      -0.33553147
H       17.33604255      11.64558121       4.94323134       0.04297714      -0.21731920       0.11500297       0.28934363       0.65393889       0.48032284
H       18.55253831      12.74505022       5.72390653      -0.01297950      -0.06768561       0.04603193      -0.98139662       0.35552853      -0.34294009
C       16.11538799      14.30295668       6.27508161       0.51240838      -0.25086889       1.05451458      -0.26193652       0.26149386       1.33938313
C       15.19286693      14.54058558       7.49174224      -0.18876298       0.15279060      -0.14641302      -0.28727925       0.79600084      -0.63575798
H       15.55579379      14.45624491       5.35222644       0.06434136       0.19199698      -0.01677220       0.04613190       0.62309796      -0.09517746
H       16.97112341      14.94605126       6.38821218       0.20464051      -0.20815863      -0.22800191       0.66920567       0.40594888      -0.43194970
O       13.87657546      14.36809854       7.00681882      -0.21847146      -0.98385467      -0.12726457      -1.60997176       0.02085318       0.60479343
H       15.22328538      15.53524074       8.03927105       0.10106576       0.25003420       0.03776736       0.54967350      -0.85827786      -0.93661135
H       15.40907049      13.76250247       8.22498322       0.03049035       0.10796980       0.11111673      -0.21040173      -0.01605072      -0.02755476
C       13.19188703      15.53109670       6.54867020      -0.25055435      -1.38826104       0.77497058       2.19609261       0.74072033      -0.35754091
H       12.21311446      15.21662485       6.23979680       0.03597199      -0.07897741      -0.24379761      -0.53436661       0.05597404       0.10713495
H       13.73523051      15.99545894       5.68844431       0.18568520       0.00104585      -0.14895133      -0.37085342      -0.67613399       0.04478240
H       13.22750684      16.41577503       7.23412658      -0.33977715      -0.13930358       0.32486524      -0.45921981      -0.94495767       0.28781626
H        5.42085594      10.43175261      15.30628809       0.27187042       0.08926240      -0.15242874       0.89882278      -0.23198664       0.88200706
C        6.38266759      10.23851354      15.86416132      -0.20688305      -0.66335741       0.15901775      -0.87020719       1.49112785       0.86307615
O        6.41216250      11.07731033      17.11353390       1.11966667       0.09176641      -0.40042847      -2.20307541      -1.64479601      -2.63639212
H        6.51529805       9.16761182      16.08334445      -0.15793279      -0.27276622       0.03158907      -0.09459402       0.34395018       0.12352408
H        7.21075398      10.59189782      15.24031574      -0.02320320       0.12517427      -0.26212401      -0.01614055      -0.16163726      -0.07424619
C        7.66698350      10.98214849      17.63656306      -0.86005193       0.25784565       0.84498791       0.89215428      -0.19830577       0.86567640
C        7.72945716      11.75879390      18.92925594      -0.28459575      -0.33576732      -0.59983297       0.55724585       1.25765550      -0.42712304
H        8.32544941      11.21658329      16.81579892       0.34673098       0.06435344      -0.05076901       1.20621085       0.75106376       0.14741939
H        7.94321514       9.97809021      17.93672704       0.10299460      -0.03274574       0.25589943      -0.15473537      -0.85373843      -0.01245544
O        6.85081192      11.14842569      19.85926447       0.43110228      -0.10308987       0.35234783       2.46167898      -1.03660226      -0.91936100
H        7.45439031      12.85092460      18.79203114       0.18980022       0.20993815       0.06619220       0.21500942      -1.08327127       0.03089074
H        8.75376787      11.74891431      19.32337519       0.04412230       0.08735885       0.17567177      -0.09506689      -0.08955393      -0.06721757
C        5.87568186      12.00669083      20.18323195      -0.06029763      -0.49784343       0.41605859      -1.82570624       1.26128161       2.12104988
H        6.20541859      12.86413502      20.83869743      -0.00820986       0.12681618       0.06136177       0.02748231      -0.50218564      -0.62981766
H        5.17900473      11.44954679      20.80310437       0.09228802      -0.24481991       0.06501924      -0.43317884       0.01371774      -0.05206044
H        5.38633365      12.36754661      19.29667091      -0.19281038       0.19251758       0.08833018      -0.59239608       0.47414646      -0.37008321
H        0.24576160       2.74630877       3.00220612       0.06466304       0.05445072      -0.02029619      -0.06363170       0.83267623      -0.69277608
C        0.55810938       3.54602717       2.27185605       0.63959363      -0.45368422      -0.58340984       0.85104650       0.96017480       0.87406796
O        1.97693307       3.40494823       2.01445568       0.09266170      -0.00592057       0.04113484      -0.96328604      -0.25467634       0.46681410
H        0.00662622       3.48746603       1.31615163      -0.01395545      -0.04078133      -0.15271832       0.03423036      -0.03837433       0.48361596
H        0.45454869       4.56018331       2.74511464      -0.22346882       0.11013528      -0.00034399      -0.23960787      -0.99606562      -0.48604691
C        2.14726130       2.05388632       1.70789167      -0.73995451      -1.08778425      -0.22590951       1.14026237      -1.71226215      -0.24499035
C        2.32488493       1.03800758       2.86954132       0.82169983      -0.71979702      -0.16734724       0.77171016       0.68170106      -3.00394964
H        3.05014310       1.83483960       1.11924954       0.33745191       0.24744725      -0.02932623      -0.05862480       0.85625541      -0.08993193
H        1.33231343       1.71633648       1.09375395      -0.00475986      -0.12099149      -0.03519431      -0.62075073      -0.18513466      -0.45621961
O        3.68704694       1.07461669       3.17131150      -0.36991043       0.51916984      -0.11309528       0.92312688      -0.36980703       1.34102499
H        2.08105141       0.07642097       2.40427405       0.22512229       0.19057745      -0.02391388      -0.27481934      -0.31844646       0.31430256
H        1.67162406       1.27558407       3.64792536      -0.00290608      -0.10673191      -0.15914898      -0.90560800       0.17860405       1.87768340
C        4.02602191       0.22470816       4.27370568      -0.24035603       0.20521987       0.87690378       1.12364662      -1.12885189      -1.29255307
H        3.36925603       0.40368200       5.08942109      -0.10563186      -0.08287866      -0.17608241      -0.37263989       0.16523725       0.91227621
H        5.10377658       0.33146353       4.54925353      -0.01639032       0.06165084      -0.22028720      -0.99164289       0.58170229      -0.12933980
H        3.95678732      26.13301166       3.99825054      -0.23649932      -0.03240594      -0.06368343      -0.30833143       0.98419577       0.13096559
H       22.76577866       9.63315346       0.30336323      -0.36082139       0.21026840      -0.10147737      -0.77829385       0.00358888       0.33874968
C       21.94670501      10.13205805       0.88791427      -0.33359542       0.36403427       1.14183580       2.18993235      -0.40521079      -0.13945954
O       21.63868454       9.41720987       2.04492775       0.94988039      -0.26439538      -0.80072599       0.49866301      -0.32697326       0.68107641
H       22.34028012      11.12953873       1.07045289      -0.13038303      -0.22914959       0.28219315      -0.17400780       0.39666167       0.40679100
H       21.08878486      10.19201369       0.29017307      -0.30349627       0.06596268      -0.03152603      -1.35264993       0.10298204      -0.87162268
C       22.80965504       9.00903030       2.75721545      -0.89675353      -0.65670616       0.05516422      -1.45150912      -1.56163120      -0.22207849
C       22.48505338       7.96063282       3.78892835       0.14514974       1.31537747      -0.17673710      -0.97020710       0.18680790       0.79445469
H       23.25821500       9.79800323       3.30799569      -0.30160753      -0.13083951      -0.09853457       0.73314983       1.08487046       0.12247004
H       23.48967103       8.46796134       2.11273259      -0.14232960      -0.08330672      -0.04212190       0.56936806       0.46180251      -0.76695406
O       21.98730026       6.77163576       3.19047355      -0.05729037      -0.06641537       0.03625388       0.18854150      -0.22683050       0.18145667
H       21.68192383       8.32689755       4.42614326      -0.09475019       0.39295774      -0.31076142      -0.12409886       0.30300039       0.42348951
H       23.40281192       7.91716863       4.41698178       0.24051991       0.01264204      -0.05096537      -0.33884084      -0.77103984      -0.25971663
C       21.36899575       5.75950401       4.00856701       0.63790799      -0.55367806      -0.11369393       2.18015623       0.03243459      -0.47225055
H       22.13910497       5.15368480       4.55019763      -0.02893158      -0.16849173       0.15669275      -0.39608136       0.32615012      -0.43498671
H       20.86724996       5.14022023       3.28438750      -0.07722725      -0.04308664       0.07770190      -0.32848844      -0.40053597      -0.05451425
H       20.69081732       6.08816498       4.76556731       0.11759586      -0.29235418       0.34092633      -0.58463436       0.81639349       0.34058240
H       21.80672801      12.45302634       3.86045660      -0.20250987       0.37175696      -0.03895723       0.37554997      -0.67663300      -0.26533487
C       20.72978175      12.52555190       3.78397463      -0.63970711       0.65446226      -0.17736977       0.04686675       3.71112418       0.62669986
O       20.39817152      13.63545102       2.89754109       0.29274620       0.39790538       0.52266316       0.47541982       0.27907032       0.19736111
H       20.18967869      11.76973321       3.33286454       0.03645408       0.07019831      -0.05442647      -0.53888518      -2.20933819      -0.51731896
H       20.37016943      12.75312738       4.81791880      -0.15906150       0.06799570      -0.12733180       0.12683703      -0.20743637      -0.63729674
C       21.11975241      14.87286143       3.22744831      -0.11724979       0.65577856       0.53447040      -1.95780993      -2.33142376       1.15275073
C       20.50341325      16.05715644       2.53902962      -0.19992161      -0.23070999      -1.07173715      -1.34504831       1.02961969       1.76612031
H       22.10692527      14.75603633       2.86064956       0.06106004      -0.08087401      -0.15344831       1.34481835       0.00161640       0.11359785
H       21.03081288      14.84882059       4.37844608      -0.02291862      -0.16477923       0.03145657       0.51643974       0.99065459      -1.61107695
O       19.09618135      16.21433665       2.87240935      -0.00939311       0.52661012      -0.40148948       0.02056054      -0.46811104      -1.25976562
H       20.69891634      16.28863335       1.49925779       0.19626697       0.21795681       0.03589351      -0.01112086      -0.82725608      -0.50765324
H       20.94698115      16.91639729       3.05280926       0.00261204      -0.02143122      -0.07103872       0.20488915       0.05864777       0.00775135
C       18.14246003      15.53148941       2.00303092      -0.04775983       0.01952157      -0.93069509       1.32256961       0.13331674      -1.43874180
H       18.38135160      14.45421093       1.87400862       0.17073051       0.04992655       0.01739149       0.01063355       0.73557729       0.23910895
H       18.03965471      15.96101962       0.90428940       0.05316163      -0.02696762      -0.05815805       0.38635397      -0.44629300       2.31646180
H       17.22460523      15.62177034       2.54053890       0.34468240       0.05679506      -0.29007224      -0.72638017       0.05971447       0.19204007
H       10.53633193       5.05368069      18.89329020      -0.04574779       0.11540028       0.16936049      -0.29900897       0.97651827       0.24676734
C       10.64090159       4.62223092      17.91445029      -0.14075040       0.40931267       0.61937268       0.60438806      -2.13134742      -0.23195992
O        9.47703821       4.69099987      17.06755564      -0.83829569      -0.89277798       0.00023285       1.78100204      -1.07923234       0.28182629
H       11.54869549       4.97581382      17.39467898      -0.41621188       0.43319785       0.16315084      -0.51035184       0.20749125       0.28789726
H       10.88605727       3.55656936      18.21291931       0.33016776      -0.08159439       0.06936849      -0.52949017       0.72933155      -0.78466076
C        8.56778470       5.67126631      17.46530504       0.70298318       0.08156686       0.42704693       1.77919650       0.82648551       0.55851018
C        7.84529053       6.08506819      16.24387517       0.20198654       0.00834239       0.30096735      -1.27918804       1.56209099       1.13835382
H        9.19670644       6.54039078      17.80105002      -0.05564404      -0.06480862       0.19537946      -0.95937073      -0.34779194       0.07666921
H        8.00240512       5.27036069      18.31811778      -0.10988556      -0.14071653       0.13749798      -0.56044042       0.56911224      -0.28564101
O        8.65308173       6.82888236      15.38873737      -0.29233629      -1.17413000      -0.51467818       0.84867656       0.43930176       0.92902291
H        6.92947048       6.62834289      16.56408794       0.26579999      -0.06481938       0.26874016       0.30922702       0.32693884      -0.12061806
H        7.47050050       5.30242304      15.68524296       0.27140832       0.07400923       0.25308638      -0.81346434      -2.36886835      -0.94169146
C        8.00795308       7.16808935      14.20374464       0.13238753      -0.65556281      -1.18951081       0.03630250      -0.09084816      -1.22325766
H        6.90894976       7.16300944      14.37214289       0.19852448      -0.01094231      -0.26737401       0.39749473       0.07609730      -0.36494768
H        8.28553332       6.41328074      13.36795329       0.10409473      -0.19938286       0.32623343      -0.49648628       1.38362336       1.09181893
H        8.35104735       8.20773025      13.97499597       0.20324174       0.18941058       0.02338960      -0.41033790      -1.12786496      -0.31781194
H        9.86207539       8.23188052       9.75794046      -0.23072763      -0.06875079      -0.03279601      -0.10457222       0.34367383       0.58097601
C       10.26866303       8.16204425      10.79149509      -0.43134285      -0.86791977      -0.48321066      -1.05541980      -1.10462224      -0.01069936
O        9.34871076       8.51934252      11.82427699      -0.13270836      -0.41705262       0.64893682       0.86427784      -0.56041682      -0.86403298
H       10.39048222       7.08038447      10.95749213      -0.03673342       0.07526501       0.03260346       0.58734471       0.33717927      -0.06796642
H       11.19338485       8.71745713      10.85399260      -0.03457519       0.19094304       0.06417898       0.19176514       0.12145763       0.00671404
C        8.63955139       9.71370396      11.65257847       0.11638186       1.05426798       0.02197064      -0.39632151      -0.57131773       1.01929843
C        9.07830166      10.66507750      12.76945430       0.00569287       0.74687091       0.20456352       0.58776122      -0.24920359      -1.26412284
H        7.57802027       9.38671477      11.75234419      -0.10351924       0.00172597       0.13719681       0.28005239       0.84778273       0.10645092
H        8.77384783      10.10248557      10.66165259       0.49054097      -0.35971421      -0.06909764       0.14054433       0.52136934      -0.58472449
O       10.41136689      11.11838876      12.49825109       0.20529962      -0.68639126      -0.13031045      -0.09603413      -1.01329744       0.55653751
H        9.01917594      10.08168212      13.69089859      -0.39772119       0.29480731      -0.32114030       0.06973348       0.38008991       0.22680688
H        8.46386217      11.53963897      12.74124780      -0.18385655       0.37465354      -0.30313645      -0.89476961       0.65416443       0.51402527
C       11.15021020      11.48793805      13.65999571      -0.26635676       0.84696423       0.00113130       0.74843150       2.84054589      -2.14353442
H       10.79538623      12.45279524      14.03796862      -0.11449546       0.32029240      -0.10458229      -0.46822533      -0.06998677       0.25211772
H       12.15781732      11.77951872      13.27937200       0.08520593      -0.06696973       0.02676658      -0.40813547      -0.81193787       0.30872104
H       11.20985506      10.82755069      14.46786684      -0.08171145      -0.05378101       0.06761259      -0.04322053      -1.64465582       0.95912516
H       17.76915650      24.48433620      14.42953420       0.14960792      -0.06092042      -0.07023331      -0.63935560       0.11646120       0.57791722
C       18.10243223      24.45071313      13.40914022       0.83741104       0.66084359       0.72539209       2.08458114       0.34655777      -0.04925570
O       18.46045655      23.12176081      13.06561423      -0.35673970       0.23105518      -0.45418144      -1.00717354      -0.02507905       0.25492948
H       17.42444722      24.95388436      12.71884297       0.14934997      -0.03251832       0.16266099      -0.35178670      -0.29523817      -0.00970637
H       19.05966257      25.03756023      13.41425801       0.03967187      -0.06394707       0.05701133      -0.73365033      -0.36951658      -0.14333190
C       17.52010861      22.16101053      13.62577352       0.68727034       0.29900238      -0.33258644       1.71393013       1.33679509       0.77275199
C       17.87856111      20.85151469      13.03910411      -0.66642907       0.16357354       0.14481002      -0.55295867      -1.65315104      -0.69908679
H       16.52138835      22.47138738      13.40372275       0.13850191      -0.51179324       0.27984449      -0.74002951      -0.03488793      -0.03138067
H       17.66390293      22.16485208      14.76219923      -0.14940304      -0.02500983       0.02709981      -0.26278394      -0.24448626      -1.29073691
O       17.60241671      20.77977882      11.62974181       1.19182363       1.25919093       0.38441087      -0.53023505       0.28589901      -0.19255920
H       17.25319085      20.08108273      13.56880196       0.09304981      -0.00499204      -0.07179578       0.76733208       0.30155721      -0.30515859
H       18.96224634      20.70241956      13.12970756      -0.18933322       0.02711500       0.09845405      -0.11218061      -0.31145874       0.51887238
C       17.45548159      19.46094469      11.10794163       0.09199154       0.00114094       0.58185235      -0.25054023      -0.39156744       2.59760237
H       16.66980561      18.90957773      11.65434292      -0.04628915       0.16982045      -0.00529335      -0.06763715       0.24156940       0.27401248
H       18.35347294      18.86747447      11.31978363       0.22186725       0.03761268      -0.02683320       0.19750521       0.10125951      -0.66236991
H       17.08302579      19.43152739      10.11595367       0.10168810      -0.07785123      -0.06767000       0.38507339       0.53420377      -1.18199313
H        9.45368146      13.23324993      17.08596178       0.07250224       0.31084980      -0.17267870      -0.34361219       1.35836899      -1.03049946
C        9.26941974      14.19054143      16.45987549       1.48214455       0.45124331      -0.26694226      -0.15333809      -1.73375964      -0.44214284
O       10.24111813      14.35063783      15.43227072      -0.14981510      -0.46768099      -0.38232472       0.36480078       0.87424201       1.11851907
H        8.33317997      14.16195967      15.89128545      -0.01340995      -0.19783430       0.02883605       0.02551246      -0.48196584       0.45685446
H        9.17129835      15.02223910      17.13178763      -0.05416276      -0.13628368       0.02201865       0.31698215       0.64212078       0.41779232
C       11.55231770      14.50493338      15.95857354      -0.39846038       0.06883089       0.37844798       1.55624151      -1.11142886      -0.13232546
C       11.80418093      15.37104390      17.23079834       0.21537714      -0.43587710       0.37537845       0.66040879      -1.22047794      -1.51730967
H       12.24639685      14.84948945      15.13125473      -0.08133652      -0.36450300       0.10157251      -1.12956476      -0.02313075       1.02386928
H       11.96629897      13.48902778      16.20830108      -0.19964946      -0.04479988      -0.35068749      -0.44658998       0.62242305      -0.06040778
O       13.25374580      15.16882921      17.41984637      -0.54461539       0.82451219      -0.67757868      -1.91625273       1.01515675      -0.12606896
H       11.26778136      15.02327026      18.10767516      -0.32045695       0.01385035      -0.15863070       0.05660739      -0.25948083       0.24204940
H       11.47717303      16.39453073      17.05663617       0.14473908      -0.03549837      -0.10013240       0.62506312       0.40142980      -0.02299319
C       13.78578532      16.22184145      18.18167489       0.51282417      -0.43973367       0.16055452       2.23592067      -0.18171208       2.08377552