2180
Lattice="26.984906108099366 0.0 0.0 0.0 27.924055328774973 0.0 0.0 0.0 26.968973248047405" Properties=species:S:1:pos:R:3:momenta:R:3:forces:R:3 Origin="-13.955 -13.955 -13.955" charge=0 spin=1 energy=-1244605.1548867342 stress="0.0033014549408107996 -0.000988432322628796 0.0011249590897932649 -0.000988432322628796 0.006137429270893335 0.0003602182841859758 0.0011249590897932649 0.0003602182841859758 0.007217345759272575" free_energy=-1244605.1548867342 pbc="T T T"
H       20.10420247      14.02711514       0.44454580       0.17064335       0.17813551       0.05217852       0.29545784      -0.01525110      -0.31263357
C       20.68243537      13.41640194      26.69647339      -1.11274273       0.80206481      -0.10379969       0.12047244      -0.66516095       0.87360448
O       21.82572461      12.81798752       0.34081775      -0.61076718       0.49950194      -0.72389310       0.12221489       0.19571498      -0.38497433
H       20.03357783      12.64435336      26.26930466      -0.17726827       0.36224476       0.09710498      -0.08322147       0.07806070       0.00322237
H       21.11669226      13.99521001      25.90719497       0.16798739       0.01203384      -0.13310827      -0.20906240       0.61172211      -0.50241297
C       21.64522469      12.28297303       1.62406562       0.56721243       0.72312272      -0.63155682       0.37690133      -0.03378587       0.42637253
C       22.08505991      13.26852964       2.72552021       0.12040064      -0.81863897       0.72873277      -0.13147207      -0.03012468       0.45526528
H       22.30053409      11.39976083       1.72237996       0.26386311      -0.10114655      -0.08174850      -0.01482065       0.25585371      -0.03800843
H       20.63115521      11.86714041       1.71674382      -0.16898376       0.05722573       0.19518374      -0.01304943       0.33411050       0.30846697
O       21.30741771      14.43750925       2.93582029       0.06504070       0.81195802      -0.57474387      -1.28615010      -0.97524780       0.31672090
H       23.07667623      13.66434544       2.55618513       0.28749800       0.05817761      -0.10034692       0.43268538      -0.09809282      -0.71326184
H       22.18491658      12.75031707       3.67475136      -0.14640627      -0.10465364      -0.19961171      -0.27498314      -0.52096283       0.27742320
C       20.02249227      14.11734601       3.54413028      -0.04073055      -0.60824721      -0.63504819      -0.32661840      -1.45711994      -1.33458304
C       19.22896009      15.37409710       3.34832409      -0.73947207      -0.57172311       0.44081990      -0.01746854       1.10325575      -1.17164040
H       20.08943835      13.79525534       4.59527461       0.11544387       0.10249511       0.15090689       0.34872416       0.34971428      -0.10627855
H       19.53786085      13.20176043       3.01066253      -0.14559071       0.02302508       0.03946000       0.70525563       1.58744025       0.58072436
O       19.83846336      16.38466135       4.13480212       1.53555143       0.56227893      -1.27390203       0.31600824       0.46318552      -0.26426673
H       19.36179257      15.68261764       2.24966701      -0.13847724      -0.01026251       0.14106587      -0.52741557      -0.60136443       1.25321281
H       18.15197587      15.37965944       3.60244288      -0.11142271      -0.06717001       0.09602449       0.49642399      -0.47965389      -0.15885912
C       20.44621390      17.40607506       3.34334845       0.27863621       0.06228154      -0.57714479      -0.52149838       0.62958497       1.60572350
H       20.90414306      18.09473991       4.09941112      -0.12086886       0.05670117       0.32992018      -0.24687082      -0.46064720      -0.94059366
H       19.69062682      17.93160411       2.76073829      -0.26927590       0.19873776      -0.37562151      -0.25708291       0.32533735       0.06401975
H       21.15854608      17.03585484       2.63352914      -0.07562402       0.02570865       0.15107030       0.66971785      -0.44982836      -0.15895458
H        4.06481165      18.73822510       0.66158064       0.23753133      -0.18717632       0.06098859       1.41640937      -1.22546196      -0.40881830
C        3.32276827      19.46166910       0.75329334       0.35452582      -0.26635003      -0.80523565      -2.33418870       0.31674048       0.26590186
O        3.20390419      20.17704635      26.50485987       0.32502352       0.31157118       0.17524360       0.45183787      -0.06752055       0.66620266
H        2.37183634      18.91889819       0.94466953      -0.06205333      -0.01207542      -0.05285450       0.54351169       0.20770903      -0.04639797
H        3.51792916      20.02409883       1.67560960      -0.39855568       0.02370720       0.06501166       0.09504917       0.56320965      -0.38787386
C        2.31067918      21.26419229      26.59244072       0.24996764       0.27312995       0.16289048      -0.41328385       0.33524677       0.73476583
C        2.37303499      22.01251594      25.30654415       0.31141757      -1.15080364       0.91388204       1.38330507       1.14686620      -0.29767802
H        2.55374219      21.88541506       0.51165175      -0.03980148       0.13897039      -0.06919977       0.08818181       0.05868397      -0.58350122
H        1.26988645      20.96788039      26.77127900      -0.12854663       0.00404434       0.07712054      -0.01785506      -0.51112151      -0.05581250
O        3.52900262      22.91472867      25.36640967       0.50966307       0.83693067       0.72806585      -0.60624975      -0.17647733      -0.48445863
H        1.46334500      22.56990247      25.07238064       0.03482325      -0.02741144       0.06635827      -0.03805920       0.08482441       0.23925537
H        2.58023567      21.33931320      24.47629792       0.22230783      -0.37070735      -0.08286831      -0.28753185      -0.37143400      -0.04059726
C        3.87549995      23.36965900      24.06443099      -0.08839703       0.76078783       0.46745696       1.06382322       1.59745729       0.48508319
C        5.29750036      23.99900558      24.06226221       0.51275312       0.54270099      -0.24734367      -0.30101585      -1.41847444       0.34117264
H        3.15359896      24.13409825      23.66773637      -0.17026056       0.22565244      -0.06940664       0.35143024      -0.77603000       0.22038162
H        4.01800010      22.54076287      23.40023337      -0.32189370      -0.03497944       0.02422514      -0.56540006      -0.64432645      -0.63516718
O        5.27823098      25.27876822      24.68091480       0.13468991      -0.02677774       0.29823157      -1.31408978      -0.72866964      -1.03778017
H        5.93505271      23.23551362      24.63213160       0.02427762       0.00119331      -0.20975229      -0.40825877       1.22744906      -0.49774173
H        5.67564358      23.97731132      22.99900848       0.03337832       0.05909509      -0.07257456      -0.29961008       0.48984593       0.92338353
C        6.52406725      25.82767751      24.88977134      -0.10673034      -0.13131464       0.21995494       0.02622908      -0.74606442       3.02145123
H        7.07476980      25.10471952      25.55183432      -0.03892968      -0.01529825       0.04920662       0.03424277       0.89298564      -0.10396408
H        6.38087536      26.80948348      25.36491756       0.22127640       0.03541404       0.22153070       0.22423173      -0.43492594       0.02737090
H        7.10874466      25.94294487      24.05011173      -0.13185603       0.30160154       0.01724565       1.18078291       0.26053640      -2.38225818
H       11.37152074       0.11784039       3.73479999      -0.11703776       0.02619227       0.01493959      -0.24614263       0.80068398       0.21271580
C       11.56348273       1.02525391       4.36631289      -0.41607303       1.21546523       0.12584054      -0.85474974      -1.43046117       1.13312280
O       12.91476368       1.33189028       4.34759120      -0.49630729       0.36307233       0.46401880       0.58897710      -0.81897593       0.22833359
H       10.86579941       1.85503799       4.17883190       0.07494603      -0.21292870      -0.04571044       0.62041092      -0.06471001      -0.43725795
H       11.36924829       0.72701962       5.40122805      -0.27386800      -0.10237582      -0.01716612      -0.16070056      -0.19548871       0.00651036
C       13.25565330       1.92107828       3.14296554      -0.03725645      -0.20285593      -0.14592500      -1.36033487       1.78469467      -0.48116130
C       12.94806640       1.19385505       1.86401404       0.21049706       0.11090042      -0.11544864       2.57359004      -1.20558071      -0.49833289
H       14.30057681       2.13014081       3.12738631      -0.05355000       0.02741670      -0.06610148       0.78761911       0.23490639       0.35335213
H       12.67325693       2.87313890       3.18119788      -0.08915582      -0.08089524      -0.30757666       0.68065196      -0.21232431      -0.71893430
O       13.79748988      27.87753307       1.75647846       0.66800345       0.62371421       0.48186123      -1.02952147       0.75297445       0.40137345
H       13.32736254       1.86162922       1.06680111      -0.02309566      -0.04776858      -0.01800942      -0.51437116      -0.07049467       0.01232181
H       11.93372068       0.88325976       1.68065954       0.03803963      -0.07122842       0.23872813      -0.32250318      -0.04311228       0.03391893
C       15.20812776       0.17872862       1.62952629      -0.34915390       0.35403076      -0.45976171      -0.61626107      -1.28559184       0.23288597
C       15.90191687      26.72589139       1.53766970       0.27172421       0.33789466       0.48136903       0.66195112       1.92118704      -1.41160476
H       15.65211656       0.60390292       2.51952950       0.06952898       0.12953262       0.21616606      -0.23228481       0.64974624       0.18094300
H       15.33008933       0.80042543       0.75027897       0.03150697      -0.26067027      -0.20786200       0.65506232       0.18646741      -0.19717401
O       15.73146988      26.14213459       0.25846849       0.16210347      -0.78737894       0.77330513      -0.38915500      -0.80965352       0.36484343
H       16.99871492      26.85906733       1.62411140       0.18553442       0.13843935      -0.01192672      -0.46128258       0.10489711       0.18818466
H       15.57626560      26.13254836       2.35991689       0.10155301       0.11745443       0.25759496      -0.39785472      -0.87234288       0.51015788
C       14.63060210      25.27192664       0.17728105       0.54474241      -0.49841779      -0.49132240      -1.96016657       0.50720209      -1.50109887
H       14.60870609      24.79599674      26.14208294      -0.22900343      -0.14450102      -0.25227883       0.22544707       0.48227981       0.36453483
H       13.61009189      25.77248693       0.30784156      -0.10898035      -0.14061928       0.03235555       1.32197535      -0.19550553      -0.12456811
H       14.62270666      24.44955550       0.85175654      -0.23637280      -0.13462883       0.05705073       0.57269698      -0.62261230       1.05305278
H       23.45306920      16.32405928      19.26186936       0.25535253      -0.02766854      -0.13617256       0.68599904       0.33610824      -0.18966562
C       23.86326107      16.96726505      20.05533228      -0.28440096      -0.43427040       0.31534450      -1.27454937      -0.15267557       0.20871732
O       22.90918209      18.01901516      20.12922754      -0.71126618      -1.35196281       0.45941758      -1.00919032       0.27389646       0.15579988
H       23.90915101      16.28495759      20.92232158       0.17192917      -0.04601635       0.03858978      -0.11874168       0.65118283       0.21848999
H       24.81350379      17.43475933      19.86087037      -0.22547488       0.17779442      -0.11976931       0.72702837      -0.29821062      -0.27851453
C       22.98660106      18.93382687      21.19378362       0.57934413      -0.54074979       0.46313041       1.12979031       0.71108621       0.66771394
C       21.93941973      20.08046555      21.12694545      -0.56860044       0.29269673      -0.49544112      -0.22512802      -0.34401539      -0.47784609
H       24.01963939      19.38105575      21.27794214       0.03822133      -0.04438899      -0.11530009      -0.67308503       0.00247849      -0.50277716
H       22.89955463      18.46728464      22.17009555      -0.04749499      -0.19164994      -0.05889187      -0.41560563      -0.58155668       0.29651904
O       22.07500978      20.86807764      22.29529678       0.11787432      -0.04332543       0.18879951       0.36157340       2.05540752      -0.02286397
H       20.89272016      19.71543405      21.07901119      -0.09651021       0.02362578      -0.02246290       0.45770824      -0.25071028      -0.12246389
H       22.11034774      20.69186546      20.23502162      -0.03919993      -0.10285951      -0.10875109       0.05295573      -0.04120713      -0.11734274
C       21.76794830      22.31716781      22.14961714      -0.22477348      -0.60382506      -0.47812032      -0.82072490      -0.07120612       0.07822932
C       22.45427839      23.15265149      23.26753051      -0.34896177      -0.97056434       0.21300756      -1.10512507      -1.47540152       0.28533050
H       20.66909457      22.51021012      22.31133456      -0.41619959      -0.10626116       0.09695366       0.81419861      -0.55456710      -0.22537722
H       21.99315529      22.70665692      21.09930045      -0.09611197      -0.15815830      -0.26239936       0.04521628      -0.62513131       1.34706891
O       23.78772326      23.36135371      22.90279760      -0.79226131       1.07141783       0.98812113       1.08792198       0.91929197       0.26283586
H       21.89564983      24.09275126      23.45012554       0.02255576      -0.00891849       0.02695742       0.25213403      -0.34985632      -0.26144108
H       22.34458935      22.53603168      24.23824555      -0.01724610       0.00399651      -0.08817259       0.35479772       0.74079913      -1.11646128
C       24.55600569      24.01146021      23.91278320      -0.58536685       0.27829006       0.14902833      -0.33062106      -1.15856981       1.71201599
H       25.62360679      24.07212225      23.67766187      -0.28358648      -0.04142327       0.11976006      -0.28243271      -0.16939893      -0.51722139
H       24.51176841      23.37962189      24.87352656       0.03780003      -0.21466935      -0.12316695      -0.00412205       0.90528613      -1.14763927
H       24.20819111      25.02018042      24.17766541      -0.29160470       0.09771877       0.01951837      -0.26537806      -0.16216153      -0.25542420
H       18.16054785      11.59751060      16.38192287      -0.01261773      -0.05287094       0.26670219       0.24017105       0.94742489       0.54067606
C       18.42715851      12.61999225      16.76636210       0.54839423      -0.19581456       0.81137121       0.24874157       0.93447167      -0.58786100
O       19.65688396      13.13946147      16.11742739      -0.24326590       0.25603013      -0.18024705      -1.13107800      -0.52763343       1.41404629
H       17.56334682      13.34885942      16.54442620      -0.13214173       0.06914240      -0.12957116       1.21904933      -1.05638504       0.33574456
H       18.63448054      12.59842545      17.85591270       0.15836220       0.01712218      -0.03589939      -0.13406886      -0.07454471      -0.89752764
C       19.46019933      13.38713845      14.76331069       0.33336938      -0.52520272       0.79694448      -1.90115070      -1.14568841      -1.10866272
C       19.47980200      11.97650506      14.03716759       1.09543195       0.30539318      -0.51147047       0.22297560      -0.31084958       0.61794454
H       20.21211303      14.05667267      14.36635797       0.05508023      -0.18424626       0.12372020       0.29343638       0.08848260       0.14399895
H       18.41012644      13.86530288      14.64468236       0.02953394       0.15041212       0.13929940       1.64844942      -0.59750396      -0.30677027
O       19.37292856      12.02122965      12.62747347      -1.19126296       0.94284760       1.60189822       0.37257200       0.29225555      -0.05133057
H       18.66200053      11.39886639      14.50168683       0.05105280      -0.00441442      -0.08581212      -0.09377553       0.16789787      -0.49633726
H       20.38667491      11.32540654      14.30957873       0.19714898       0.10104574       0.09138095      -0.77951312       1.46673417      -0.45186183
C       18.14563537      11.64850797      12.03681682       1.05432988      -1.05096152       1.26866943       0.49978778      -0.38843960      -0.61547738
C       18.26878710      11.92163542      10.53757150      -0.01553593       0.04172004       0.94832426       2.39848256       0.06082269       1.27177787
H       17.34845348      12.26839230      12.36652376      -0.27168575       0.35703327       0.33603603      -0.70095998       0.45148984       0.76543444
H       17.94380214      10.60516899      12.23484036      -0.01688964      -0.27162627      -0.06449518      -0.23105441      -0.51169920       0.15427646
O       17.21432300      11.69982136       9.73580479       0.44441150       0.88827291      -0.12392880      -2.31198549       2.65467596      -0.61420244
H       18.56283614      12.95853544      10.47390343      -0.08286942      -0.12601352      -0.10484897      -0.41406539       0.77499139       0.02409976
H       19.16269606      11.48629801      10.10903745      -0.00290336      -0.03950587      -0.09483695       0.49909636      -1.02747726       0.20995080
C       16.81982741      10.46548381       9.30769289       0.18332691       0.92656974      -0.18837703       1.60767829      -0.63956898      -1.90556586
H       16.26780518       9.98815410      10.06998051      -0.00779745      -0.03841058       0.00523302      -0.98556918      -0.97385985       0.59219301
H       17.76765724       9.91983691       9.09463176      -0.15374128      -0.05333641      -0.01333924      -0.58745939      -0.47601354       0.03458151
H       16.26579546      10.59400176       8.33249938       0.05759851       0.33039314       0.02849595       0.24063472      -0.30605254       1.29748273
H       26.71207079      21.81781386      18.00548531       0.15333592       0.22752164      -0.06340669      -0.16156244       1.32002890       0.28685290
C        0.08794573      20.83473430      17.92129081       0.17589365      -0.32561112       0.44778661       1.85901010      -3.06853509       1.62781370
O       25.99178938      19.95631207      18.15396757      -0.00780198       0.22100783       0.98289229      -0.82358187       0.33940551       0.48033372
H        0.54510278      20.61625083      16.97075335       0.01858305      -0.14724528       0.18421545       0.12110070       0.23538077      -0.80005413
H        0.91593980      20.51034712      18.69409311       0.07460393       0.34526217      -0.16423522      -1.17748237       1.36320889      -1.16315520
C       26.09997289      18.67839041      17.60484213       0.65106483       0.07096807      -0.01804388       1.30527782       0.26910836      -0.51746035
C        0.24395234      17.84873890      18.23294135       0.55857086      -0.38678624       0.43958562      -1.71277463      -0.25763896       0.05250170
H       26.25177076      18.79556954      16.53411714      -0.12769510      -0.10340673       0.07365319       0.28007415      -0.24410452      -0.47264042
H       25.17179690      18.18134580      17.71996467      -0.30231473      -0.20759890       0.09052268      -1.01797044      -0.47336656       0.34345019
O        0.26202356      16.57733729      17.62314540       0.68194417      -0.42799218       0.02565816       0.00803139       0.74046606      -0.79227626
H        0.02521304      17.80008164      19.30337452       0.23102410       0.32483469      -0.08075220       0.08525589      -0.23374693       0.22894865
H        1.15725158      18.36105770      18.10626384      -0.10202692      -0.15924942      -0.06021489       1.45808625       0.50060010      -0.12823740
C        0.67437610      15.51248643      18.44796212      -0.49395469       0.24822066      -0.18000788       1.70057642       0.27305147      -1.06912684
C        0.69240088      14.23469051      17.60302426      -0.65510403      -0.14055198      -0.26048026      -0.62337512      -0.18182917      -0.72242904
H       26.88075197      15.39526456      19.15837164      -0.17579654      -0.29693485       0.04036662      -0.62276107      -0.34611723       1.23283589
H        1.64766411      15.77381557      18.94673197      -0.01987290      -0.06638870       0.16275408      -0.67326337      -0.61050975      -0.30545846
O        1.88904014      13.78377996      16.97463539      -1.14681896       0.40148296      -2.06996752      -0.07585111       0.70268136       1.10986006
H        0.21763044      13.50267322      18.24196092       0.03867596       0.18112718       0.04932779       0.41923806      -0.95039791       0.33759737
H       26.96379468      14.32832437      16.77325759      -0.01317004      -0.24689804      -0.00235442      -0.29053813       0.46691507       0.19965352
C        1.83771000      12.43306680      16.54805591      -0.15395916      -0.20503355       0.30202403       0.79564828       0.14663123       1.54255831
H        1.91402949      11.73755503      17.41018031      -0.34975975      -0.04975097      -0.02273651       0.06786340       0.28203037      -0.11360656
H        2.73558869      12.32642600      15.96194931      -0.26988191       0.02088565       0.05611917       0.04911100      -0.40786138      -0.51489002
H        0.92727043      12.17997275      16.05865362      -0.15899257      -0.02319235      -0.05327955      -0.72522092       0.10576406      -0.82121420
H       25.72960595       1.26705751      10.63712787       0.00291438      -0.08156054       0.11520596      -0.39460951       0.04830302       0.63897586
C       25.66594663       1.50228593      11.72656765      -0.18607560      -0.67423682       1.09537411       0.97512621      -0.75756103      -0.60785419
O       25.73321603       0.31419649      12.51318267      -0.86940593       1.09940302      -0.88306201      -1.35490894       0.39184704       0.47697604
H       26.54121109       2.16361010      11.90487287       0.14762769       0.03157956      -0.20500890      -0.41236633      -0.27441585       0.25445044
H       24.73288983       1.99811928      11.95161325      -0.01408765      -0.18184479       0.02661051      -0.03164041       0.12163784       0.05332750
C       26.49985337      27.21496840      11.95797426       0.17138567       0.37020843      -0.32236558       0.64590091       0.78630555      -2.68260598
C       26.32794751      25.90976294      12.67467550       0.34548072      -0.05863057       0.92429977      -0.06840624       2.13356471       1.07338572
H        0.54142237      27.64068118      11.99859125      -0.11203761       0.08200193       0.23820394       0.09633470      -1.07474077      -0.14599134
H       26.20888747      27.08874737      10.85471914       0.07889013      -0.04169827      -0.14959899       0.41331726       0.13091812       1.12194073
O       25.03402432      25.41178370      12.39566029      -0.29538454       0.02537272       1.13141432       0.42864999       0.64951676      -0.01443327
H       26.46527945      26.30909327      13.71247450      -0.03938362      -0.15792862      -0.00129926      -0.37266335      -1.26810503      -0.02259597
H        0.15143022      25.25281411      12.40807424      -0.00507162      -0.00845115      -0.07565482       0.22327428      -0.45626625      -0.05403346
C       24.70367449      24.19822593      13.02092533      -0.37887476       0.61664498       0.33955724       0.66818786       1.62912190       2.27979970
C       25.55178871      23.09693873      12.58439435      -0.34618122      -0.35125039       0.87097329       0.29616836      -3.39762807       0.95298219
H       23.64973803      24.09474469      12.83427709       0.08077813      -0.11710195       0.09716828      -0.45170906      -0.63151664      -0.18624063
H       24.84756350      24.26610433      14.14711779      -0.07608951      -0.01541275       0.28821445      -0.30385965       0.16200162      -0.88730597
O       26.78536077      22.91978265      13.36709501      -0.12830991      -0.00433979       0.31639318      -1.74324596       0.14447607       0.18468231
H       24.94425812      22.15768471      12.73884707       0.13721039       0.03420925       0.11526092       0.62025148       0.58553261      -0.14391160
H       25.71138924      23.14582883      11.52688484      -0.04141296       0.02215519      -0.25870291       0.63878375       0.13800938      -0.76157832
C        0.95141057      22.69248460      12.58200318       0.43847798      -0.28609147      -0.20022642      -1.12955928      -0.13668677      -1.57836390
H        0.87245068      23.56146663      11.89398423      -0.10100825       0.22533392      -0.01131784       1.18784547      -0.87191856      -0.28681892
H        0.91855899      21.68276873      12.01335469      -0.12726096      -0.14960365       0.07058961       0.13487712       1.55286813       0.85321039
H        1.83092704      22.76569227      13.20975784      -0.12092534       0.15668194      -0.08662048       0.08412240      -0.11196046       0.03901380
H       19.59950435      17.03892580      15.29726332       0.05683770       0.30964346      -0.12655559      -0.18013451      -0.08400852       0.19881150
C       20.17321163      16.53730910      16.08697519      -0.00081364       0.71872102      -0.04830629       1.79492366       1.61227143      -0.67877084
O       21.49613292      16.23071910      15.56428933      -0.11670028       0.51267003      -0.76768439      -0.44233242      -0.86047381       0.05434253
H       20.36368615      17.27334748      16.90163773       0.02869497      -0.04907824      -0.09208074      -0.68352944      -0.67048222      -0.38025299
H       19.70499006      15.61999738      16.37992681      -0.06438663       0.11605835       0.21196274      -0.12906758      -0.42406151       0.38890699
C       22.06081616      17.19599585      14.73664745      -0.34601542      -0.10621705      -0.45447378       0.92707020       0.62650985      -0.40681347
C       23.59966222      17.00523862      14.68154536      -0.46910436       0.22441164       0.41193160      -1.19281566       0.20235164      -0.39072838
H       21.95270831      18.21542752      15.13954894       0.20580851       0.18963995       0.02256635      -0.52915543      -0.07389852      -0.09335092
H       21.67807636      17.17656126      13.66575826      -0.20518729       0.00442357      -0.00796393       0.19211546      -0.07771994       1.18531191
O       24.08139037      18.00987876      13.80674491      -0.93957127      -0.03201154       0.13181052       0.03345364       0.07208984       0.55303836
H       23.79320065      16.04822320      14.21753878       0.09076918       0.20550313       0.00843884       0.24192698      -0.59232002       0.14603618
H       24.07194205      17.07976982      15.68708896      -0.03608751      -0.08553734       0.18043256      -0.26663113      -0.08070918      -0.44903329
C       25.46712053      17.80652384      13.54627722       1.23206753      -1.23170229      -0.32382519      -0.71932703      -0.64914531       3.17194724
C       25.98934186      19.03535411      12.91473767       0.53133858       0.24483981       0.26127097      -0.96646821       0.94128036      -0.12194704
H       25.52548456      16.88766888      13.02455897       0.19096443       0.12939826      -0.04899881       0.56096798      -0.88477957      -1.31398726
H       25.97887905      17.51077826      14.57766705      -0.08489753      -0.00231078      -0.29141664      -0.62497979       1.08869421      -1.73518431
O       25.66064617      19.14969759      11.54415892      -0.37954250      -0.67637673      -1.06962331       0.87198591      -0.44743499      -0.49067405
H       25.42882562      19.89750352      13.31312626       0.18795101       0.01322171      -0.20598838       0.36544904      -0.35156497       0.55828679
H        0.02484634      19.12461549      13.21207014      -0.11695950      -0.11227772       0.11904684       1.19946563       0.38956881      -0.58283371
C       26.63745726      18.72504235      10.60396315       0.07246947      -0.24357474       0.00350590       0.28620350      -1.25776494       0.34329680
H        0.37974990      19.47832888      10.34538628       0.26548400       0.01347691      -0.00008088       0.46139851       0.34752595       0.34519881
H       26.13341545      18.47850863       9.70312214      -0.01950986      -0.23992197       0.02512627      -0.75089681       0.07286096      -0.98189849
H        0.15786996      17.74463225      10.82738454       0.34414627       0.00158212       0.06791602      -0.19813864       0.90888596       0.51532847
H       17.79660487       7.72564512      11.47403720       0.15691558      -0.13378824      -0.24861394       1.03036118       0.27445734      -0.34409961
C       18.91102727       7.74568810      11.24897157       0.15947007       0.24967395      -0.10423208      -1.09295106      -0.37895039       0.91834301
O       19.62755471       8.51932307      12.18171720      -0.11528685      -0.51820175      -0.21911043       0.91872960       1.02144802       0.04469671
H       19.23409702       6.71733534      11.24913794       0.11136319       0.07364696       0.09919749       0.14387111      -0.61588132       0.19197734
H       19.13379354       8.13009602      10.27060819      -0.10030618      -0.06067482      -0.02965520      -0.14292540       0.48547050      -0.45234337