2447
Lattice="29.173026174963727 0.0 0.0 0.0 28.74810743510533 0.0 0.0 0.0 27.485280238714804" Properties=species:S:1:pos:R:3:momenta:R:3:forces:R:3 Origin="-14.44925 -14.44925 -14.44925" charge=0 spin=1 energy=-1819593.7004842327 stress="0.002379627898335457 -0.0016393816331401467 -0.00032512901816517115 -0.0016393816331401467 0.003720012027770281 -0.0010971573647111654 -0.00032512901816517115 -0.0010971573647111654 0.003914717119187117" free_energy=-1819593.7004842327 pbc="T T T"
H        0.28103194       4.55726001      20.48332798       0.03491811       0.20411149       0.00769474       0.05293025      -0.25305301       0.16618574
C        0.60101951       3.71685567      21.11983058      -0.80565408       0.50463283       0.40491073       0.12197035       1.44840539       0.31778851
O        1.47081927       2.91143980      20.38438216       0.66982450      -0.52607744       0.08039143       0.25990564      -0.48494312      -0.61588275
H        1.14127214       4.16746092      21.99483283      -0.11596964       0.08744431      -0.05058347      -0.66677928      -0.38604829      -0.47461450
H       28.88491065       3.16526908      21.43059942       0.07284123       0.17375252      -0.01869352      -0.01180235      -0.05265189       0.34360579
C        2.26109723       2.10853941      21.21863417       0.29884196      -0.56826602      -0.75839170      -0.05936491      -0.61204511       1.17024493
C        3.55863621       2.75122768      21.69380659       0.25007263       0.43077438      -0.08433300      -0.62463754       0.18458301      -0.59071279
H        2.39660381       1.09377276      20.79893574      -0.13730806      -0.01033249       0.06703208       0.21294796       0.70354617      -0.43333510
H        1.74085161       1.88536627      22.18413299       0.25408331      -0.00012375       0.14690504      -0.01119640       0.22705565      -0.44903281
O        4.48156295       3.12247427      20.65641771      -0.13529272       0.78406400       0.29017165      -0.54521859      -0.70223123      -0.06176645
H        3.32721957       3.59239192      22.35119621       0.18787923      -0.12459563      -0.21960136       0.05453682       0.26847157      -0.28179389
H        3.95429172       2.01558024      22.35843478      -0.05604106       0.19060597       0.28699201       0.90130389      -0.55991602       0.24089997
C        4.43634492       4.50429321      20.38389165       0.05678641       0.22098817       0.97339904       0.12605239       0.81001997      -0.29657987
C        4.80824018       4.92809058      18.96582285      -0.09938731      -0.71660216      -1.81691012       0.78962690      -0.02424951       0.02139362
H        3.43485704       4.87365553      20.50069641       0.23722330      -0.00642739      -0.08421621      -0.72211283       0.24646387       0.43759480
H        5.09733447       4.97278294      21.10848531       0.09921421      -0.02127803       0.38459804       0.15420189       0.60975122       0.10485851
O        3.81027066       4.62835455      18.03359469       1.04712501      -0.79565179      -0.31931135      -0.71925431      -0.15809578       0.23681873
H        5.06915719       5.99598653      18.82957057      -0.23352797       0.07385937       0.14206177      -0.38179713      -0.25628364       0.68631458
H        5.71591942       4.42720799      18.67388998       0.17334383      -0.02484393       0.14036583       0.71612120      -0.39251375      -0.15209711
C        4.00398259       3.35935433      17.43850262      -0.37457850      -0.63411141      -0.72964474      -1.19616306       0.44326562      -1.72491348
C        2.63270250       2.75581598      17.03301210       0.19897598      -0.61526477       0.35549628       0.94757158      -0.59727383       0.79773027
H        4.68153321       3.55355351      16.57945538      -0.46257678       0.14763365      -0.28086666      -0.17254138      -0.78559589       0.31011942
H        4.37813844       2.60435059      18.11611739      -0.29991980      -0.34003760      -0.02904571       0.54553217       0.07974592       0.38627818
O        1.80417328       3.38514770      16.08779007       0.34711430      -0.90391071       0.52241745       0.31960627       0.68088949      -0.26916274
H        2.84377778       1.68701464      16.78140816       0.00643634       0.08052051      -0.24358997      -0.12096369       0.57221252      -0.34110752
H        2.07094387       2.70763014      17.97378071      -0.14427051      -0.05844865       0.11793387      -0.14873725       0.18178728      -0.20321049
C        2.42542303       3.90454640      14.90468500      -0.25540821       0.01240009      -0.22093543       0.18483333      -0.86889303       0.32386407
C        2.91526683       2.76203779      14.02113193      -0.73191929       0.07639561       0.58633916      -0.11504078      -0.04812660      -0.15666860
H        1.62990757       4.40393535      14.38303510       0.21741150       0.23713004       0.06061611      -0.44087312       0.24323304      -0.37110865
H        3.19873799       4.65078883      15.09081962       0.15392695      -0.05658153       0.00751980       0.19284487      -0.24291241       0.29937437
O        3.22209549       3.32060186      12.71467770      -1.11541379       0.19937559       0.08318139       0.58441645      -0.33510157       2.43403888
H        3.71760687       2.13689003      14.49076888      -0.26323511       0.23571095       0.05582690       0.14008981       0.98193657      -0.53888178
H        2.08881344       2.03365578      13.98672183       0.06078997      -0.13685311       0.08730396      -0.14229068       0.16073212      -0.57868892
C        3.78716926       2.36394079      11.85685277       0.45054185      -0.29882148      -0.40555306      -2.85074973      -0.25310838      -0.45670256
H        4.66999411       1.84870031      12.11173972       0.09647104       0.07027675       0.17080252       1.33002627      -0.27603483       1.03268635
H        3.95210456       2.92672816      10.97070699       0.20111192       0.04059860       0.26344412       0.20394450       0.03211770      -1.15324724
H        2.98026463       1.60646707      11.74248496      -0.11789569       0.02992121       0.02676477       0.61576122      -0.01087487      -0.60320920
H       11.65677276       1.21161259      23.94411049      -0.05387273       0.04377254      -0.02303844      -0.03056313       0.31097379       0.35161495
C       10.98054018       1.53357278      24.75229997       0.10502168      -0.01121458       0.31406025      -1.73398757      -1.61355793      -0.18717429
O       11.03409962       0.59290291      25.87169255       0.49868165       0.01413634       0.03702532      -0.02610266       1.07739401      -0.72010559
H       11.15682778       2.49660089      25.12748714       0.11447579       0.19520560      -0.08725723       0.91384786       1.49216056       0.36233103
H        9.92610960       1.62208273      24.35031777       0.10684779      -0.17853258       0.21586897       0.99604714      -0.65618670       0.46599370
C       12.31388204       0.69679408      26.52297654       0.44991614       0.52676244      -0.56571288       0.01069827      -1.77922201      -1.67880130
C       12.36744898      28.38387953       0.09249692       0.40478280       0.24835529      -0.04783700       0.94775552       0.67283833       0.57134831
H       12.59136698       1.65586331      26.82005146      -0.11330197       0.13670009       0.24295392      -0.33904663       1.90938830       1.00987971
H       13.05723535       0.54884738      25.74695941       0.04371482      -0.18390349      -0.36301246       0.52029812      -0.61585504      -0.14056127
O       11.26144194      28.45943116       0.93420029       0.29876950       1.31574156       0.84877735      -0.44981444      -2.05785728       0.08078026
H       12.28809663      27.41365586      27.15368634      -0.12277431       0.11511026       0.00516269       0.08600302      -0.89248013      -0.58942592
H       13.30404544      28.40077208       0.69276583       0.00067998       0.10834244       0.13896197      -0.22319826       0.29086375      -0.42049658
C       10.89637539       0.90746385       1.46680272      -0.08798398      -0.15471466      -0.56997428      -0.87603092       1.93256021       0.12198947
C        9.62455758       0.61309840       2.26509449       0.66246109      -0.43800630      -0.40724559       1.44503856       1.28180122      -0.65229267
H       11.64661877       1.33368164       2.15862669      -0.10973200      -0.07608598       0.11103920       0.02291192       0.01557820      -0.31667176
H       10.67876998       1.62656544       0.60639980      -0.32540167       0.09658663       0.10518785       0.14668688      -0.35306984       1.28778327
O        8.64531921       0.24553948       1.33535196       0.54992822       0.55450904      -0.09073295      -0.42464897      -0.22737597      -0.00693739
H        9.87608770      28.58519568       2.97609579      -0.11504405       0.00318734      -0.24988602      -0.28779989      -0.30171970       0.35478640
H        9.30239460       1.53398053       2.76985335      -0.08567978       0.06341951       0.03242203       0.15031429      -0.22432637       0.20962024
C        7.36407596       0.55083479       1.80030405       0.48669549       0.55857668      -0.09048223      -1.02320766       1.15194201       1.50598431
C        6.77119241      28.40139650       2.87050889       0.51107429      -0.74427851       0.07968931      -1.47099423       0.22531059      -0.99507552
H        7.32780622       1.57159634       2.36493964      -0.23086540       0.10001792      -0.41821644       0.30673876      -1.15949690      -1.47647572
H        6.68934636       0.50902888       0.94448394       0.15938682       0.26702414      -0.44627314       0.01854967       0.24897055      -0.01883109
O        7.40189141      28.49280152       4.08628012      -0.99103511       0.43453714      -0.18322597       0.24894863       0.65004832       1.63571894
H        5.68999515      28.71065466       2.94263282       0.01441417       0.34049056       0.13783967       0.77115446      -0.26515582      -0.10485888
H        6.79591427      27.38209428       2.55065530       0.03051389       0.06411371       0.31095903      -0.18305512      -1.01691484      -0.45234790
C        6.53535073      28.69828919       5.23056702       0.88563243       0.18425949      -0.08775947       1.23748612      -0.38136005      -0.87613100
C        5.49783157      27.68693997       5.42567418       0.20110450      -0.12853476       0.02821210      -3.15821409      -1.90016747       1.74047506
H        7.22117604      28.69702764       6.05736344      -0.14311591      -0.00643190       0.03467453       0.21059285       0.19290347       0.46565920
H        6.00949325       0.88467731       5.14795726      -0.11535859       0.08317735       0.08945411      -0.10007881       0.84589303      -0.07816026
O        5.98251346      26.36749656       5.70848459      -0.77005042       0.33332310       0.36768316       0.97796386       0.20329341      -0.07972436
H        4.79306245      27.96678596       6.31667336       0.07274742      -0.15242632       0.28799517       1.26997840       0.03554836      -1.34040451
H        4.79389051      27.60474412       4.57966588       0.05234661      -0.04690657       0.10987635       0.24262597       0.25904086      -0.05137939
C        5.05067253      25.48194579       6.30917005      -0.09022979      -0.17112509       0.44305929       0.49766499       1.67492807      -0.39680204
H        4.34936851      25.14047286       5.59698879       0.12079168      -0.01727298       0.09811987      -0.92272097      -0.52135634      -0.77566403
H        4.55155384      25.97561864       7.10170948       0.08951592      -0.08276722       0.26032243      -0.89780992       0.70816457       0.84679079
H        5.54176268      24.67563851       6.76785614       0.13830260      -0.17628778      -0.27813352       1.13121271      -1.21687400       0.24414547
H        9.22425929       6.78141256      19.32220412      -0.16088591       0.10038411      -0.11539383       0.18201551       0.64995950       0.66715783
C        9.46919267       6.17640532      18.46956537       0.35019469       0.29101069      -0.14612031      -0.14882138      -0.98857421       0.61867642
O        8.52494391       5.10187687      18.46338804      -1.12816489       0.68474256       0.11188068       0.83873981       0.36396694      -0.14562632
H        9.39294502       6.78589217      17.59842417       0.03236321      -0.04584932       0.12593605      -0.16054691       0.11281928      -0.76860154
H       10.48833879       5.76716873      18.58930113       0.11020043      -0.05862744       0.09387294      -0.28670049       0.18651359      -0.16171941
C        8.72113752       4.29299107      19.59151996       0.68411913       0.25730471      -0.14857276      -0.83902872      -1.83457494      -0.12910828
C        8.34768442       2.82899830      19.17129631      -0.26901374       0.00490425      -0.55388937      -0.33668408       1.10922348       0.22194706
H        8.08200338       4.62169145      20.41298001      -0.09639564       0.31173573       0.13326081      -0.12093046       0.13431123       0.24960922
H        9.75012063       4.24095640      19.97479227      -0.11394890       0.16919980       0.18034570      -0.10447698       0.44264916      -0.36602506
O        9.13769334       2.47231530      18.07644802      -1.38090376      -0.04492166      -0.43982924       0.43288991      -0.68042779       0.53530490
H        8.54874769       2.10831073      19.93646303      -0.13968743      -0.15911127       0.12010972       0.31672147      -0.26719800       0.90413702
H        7.27733756       2.70950935      18.95081750      -0.04936877      -0.10357701       0.05152031       0.10513467       0.26651716      -0.13222164
C        8.54334657       2.67297506      16.84449420       0.49316791      -0.34448141      -0.22153677       0.00681888       0.15493919      -2.05102038
C        7.98191155       1.36974761      16.17398434       0.00805301       0.95014255       0.07670711      -0.97979808       1.47586703      -1.61460280
H        7.76266622       3.44132379      16.90264272      -0.03074696       0.19534535      -0.05501866      -0.24348222      -0.40602696       0.02305436
H        9.31456576       3.19400696      16.22820360      -0.22029472      -0.21510163      -0.14953905      -0.43913886      -0.76653945      -0.12776908
O        6.73454352       1.06716181      16.77076005       0.05256690      -1.09159619      -1.01484998      -0.07888850       1.57183754       1.15763807
H        7.79948267       1.55440494      15.04339506       0.01450987      -0.03775455      -0.01343958       0.50411683      -0.11859605       1.60668290
H        8.60227736       0.49940475      16.26001443      -0.23896491       0.13034617       0.27905934       0.85794765      -0.33697486       0.08540144
C        6.10317579      28.64159452      16.47436100       0.35200621       0.83895221       0.37572548       0.29068995      -1.98020256      -1.30850577
C        5.03144085      28.33390686      17.48478092       0.06687215      -0.27126696       0.08687691      -0.53983003       1.01392794       0.61749226
H        5.67885849      28.59336240      15.41643014       0.14070732       0.01641615       0.06793798       0.06411926       0.41105258       0.97229010
H        6.79865875      27.79537167      16.46673522       0.02982079       0.08535283       0.05136481       0.29104853      -0.10803515       0.07638183
O        5.53043269      27.92923719      18.79488258      -0.73894504      -0.22186412       0.06790917      -0.17079920       0.29448608      -1.40265214
H        4.53965811       0.56640176      17.66807791      -0.24108515      -0.21344682       0.28709134      -0.18141857      -0.70639575      -0.35101923
H        4.30870798      27.59473037      17.06415382       0.16949209       0.04059932       0.21660813       0.47876033       0.33730608       0.48329121
C        4.90236392      28.66151027      19.82358463      -0.17920244       0.03733134       0.32149729      -0.74112236       0.54031044       0.89429379
C        5.12815874      27.86053939      21.07731579      -0.95414562       0.08852224      -0.88546668       0.55992973      -1.61791492       0.88162702
H        5.26217825       0.95407588      19.96850877      -0.16316360       0.05348510      -0.21806818       0.16560841      -0.46851042      -0.40910846
H        3.81746887      28.72145472      19.68239266       0.10378303       0.05255269       0.05373357      -0.01163060      -0.00167381      -0.36046979
O        4.78681078      28.47735996      22.32230299      -0.65024591      -0.96047388      -1.38962184      -0.39583844       0.28965425       0.01128550
H        4.65268742      26.82609221      20.93968444       0.07960345       0.20197271       0.01904318       0.39937609       1.49492311       0.58242393
H        6.21974935      27.70571477      21.17135376      -0.13985914      -0.05344450      -0.06511648      -0.32642093      -0.10947587      -0.16410781
C        3.54737777      28.12462084      22.94897258       0.35981716       0.69388052      -0.32339336      -0.85440409      -2.14115858      -2.13233805
H        3.34184749      27.03292852      22.71225972       0.00392003       0.09553095      -0.01643658       0.42789996       0.83150876       0.58770448
H        2.65050777      28.57826065      22.44973225      -0.13629034      -0.03049510       0.13212820       0.83515954       0.31442615       0.81620014
H        3.58534822      28.23906127      24.02841896      -0.22594314      -0.31122156      -0.20755456       0.03362349       0.47296658      -0.13217846
H       24.96599777       3.93992418      23.81198479       0.23411520       0.03017211       0.06835493      -0.69237453      -0.17112905      -0.11335900
C       25.42952285       4.38753777      22.92751986      -0.42618048      -0.19429249       0.17557043      -0.74612260      -1.22812855       1.81241059
O       26.46997908       5.14740125      23.43615222      -0.52768550      -0.87842899      -0.49145125       1.02448916       1.98139942      -1.71431315
H       25.64309131       3.53986050      22.29280591      -0.14657047       0.09534159       0.00996572       0.93191314      -0.21881394      -0.47523826
H       24.69598687       4.98344851      22.41870999       0.13666545      -0.17943272      -0.07813448      -0.21046871       0.64864242      -0.21586807
C       27.14069582       4.74127090      24.62065979      -0.12531203      -0.14542267       0.04883355      -0.81835949      -2.65562868      -1.76483989
C       28.14937413       5.76055001      24.95358351       0.20592553       0.54169652       0.30254038       0.33170354      -0.76317525      -1.01386917
H       27.67346830       3.74160548      24.35455412      -0.09885420      -0.21573808       0.17931067      -0.93973100       1.32527721       1.18635368
H       26.28646258       4.69685836      25.30841370       0.16148468       0.14047815      -0.04572110       0.69462103      -0.60288817       0.85000819
O       27.49109888       6.96368495      25.02371001       0.89821738      -0.44090097       0.48181338      -1.29724789       0.14744794      -1.12119806
H       28.59443443       5.49811036      25.85578158      -0.00686044       0.04887467      -0.03780206       0.70616758      -0.44134367       2.10297346
H       28.98224426       5.66243309      24.24858144       0.06420980      -0.22222458      -0.18993495      -0.11629765       0.74578571      -0.49196446
C       28.06983506       8.02412859      25.65851334       1.03692349      -0.47656639      -0.01740164      -0.06609774       2.37261701       0.65750051
C       26.98945656       9.18087443      25.68098043       0.34876195      -0.08470886      -0.33689677       2.51889205      -1.47228634      -1.43173850
H       28.42379920       7.72441680      26.66617583      -0.05822185      -0.00770512      -0.34762424      -0.29895452       0.26747552      -0.12409902
H       28.94216887       8.45973441      25.11923256      -0.09703658       0.16487277       0.17146189      -0.30013478      -0.41114080       0.12433793
O       25.85854574       8.80205648      26.39422303       1.01364455       0.88425697      -0.05989781       0.49972776      -0.46797439       0.00741180
H       27.52753494      10.01115076      26.07665463      -0.05664605       0.11216897       0.00622273       0.10705153       0.88745278       0.62053245
H       26.78513025       9.48351857      24.60840322      -0.04221252      -0.18153618       0.30016105      -0.16563973      -0.50952280       0.93089759
C       24.93998450       9.84569502      26.44879415      -0.47068455      -1.02057423      -0.46095249      -0.93843830       0.94800079      -0.40908298
C       25.34139994      11.11455983      27.17212138      -0.11308406       0.06000663      -0.58615658       0.52223039       0.03211090       1.12115490
H       24.66878091      10.17168244      25.44327500       0.13214709       0.04149424       0.01336205       0.17281596       0.01420486      -0.44577405
H       24.04165851       9.38633398      26.81500066       0.08848309      -0.23642813       0.05612302      -0.58674675       0.09029007       0.73995298
O       25.29687340      10.93959309       1.13680660      -0.35996618      -0.30351495       0.21373606       0.44621137      -0.10316511      -1.61725628
H       26.36588934      11.46185724      26.84376809       0.09690522       0.20324786      -0.04817216      -1.00901270      -0.20496275       0.38466108
H       24.62270922      11.91122429      26.93622356       0.06680688       0.16493615       0.14689026       0.11735958      -0.17012224      -0.33007884
C       25.22982271      12.17948854       1.79828893      -1.04005171       0.29908341       0.79065127      -0.80586284       0.33763519       1.39196134
C       23.73577737      12.48552756       2.07371521       1.14802758       0.68946957      -0.78619632       1.39168942      -0.52651936       1.63234174
H       25.63322335      11.97635521       2.82029001      -0.20372766       0.25728022      -0.02539363       0.42912355       0.72892833      -0.99020463
H       25.63257336      13.04230874       1.24100804       0.09002252      -0.26302055      -0.14779964       0.47866002      -0.46117321       0.24163538
O       23.59344877      13.85485392       2.48572319       0.53951565       0.24098258      -0.37981088      -0.70374304      -0.86019087       0.25602576
H       23.23385500      12.22995638       1.14668675      -0.04552759       0.01640746       0.07059280      -0.90506476       0.09941694      -0.01243086
H       23.56413472      11.74060798       2.93922466      -0.11911920       0.05858597       0.16376518      -0.77147591       1.15764332      -1.25422788
C       22.26369390      14.11301194       3.05867328      -0.77758481      -0.06593497       0.32738495       1.69661534       0.23545730      -2.25984931
H       22.26149189      15.20715953       3.27856512       0.03628508      -0.08868652      -0.03495612      -0.23946556      -1.00838602       0.28071299
H       22.15947879      13.41713605       3.86586009       0.04758621      -0.24276965       0.11266918      -0.52107924       0.01168434       0.84373391
H       21.56400909      13.87401144       2.22814628       0.01290333      -0.06632409      -0.28281575      -0.19006759       0.21831197       0.74119186
H       16.54591390      18.41720321      16.20308650      -0.12520254      -0.20362083       0.12605751       0.21087945       0.64697373       0.24877509
C       16.92401457      19.46343493      16.29714684      -0.43245688       0.77282806      -0.55189663      -0.75011182      -1.82968354      -0.37951720
O       18.15633468      19.49985385      15.61947280      -0.43964979       0.04506896      -0.68519468       1.26087189       0.74775755       0.08869153
H       16.17371169      20.03628006      15.76327551       0.29074597       0.12111585      -0.14941760      -0.08007282       0.67351538       0.35327381
H       17.04068527      19.63929402      17.37258666       0.02817598       0.06173529      -0.03160805      -0.30447322       0.38766041      -0.27409279
C       19.08284589      20.30050856      16.34417925      -0.87896044       0.52362668       0.34988700      -0.44562897      -0.09937660       2.92325091
C       20.52416775      20.18822407      15.92279941       0.09237822       0.23860311       0.19912871       0.13419975       0.32768357      -0.06101901
H       19.03648403      19.91694667      17.43668027       0.10393556       0.03374295      -0.13838047       0.25044313       0.49727383      -1.23799181
H       18.76591804      21.36742345      16.46940060      -0.13143106      -0.06390046      -0.03171399       0.12202736      -0.60253835      -0.74540472
O       21.07565681      18.95817953      16.41276671       0.52272814       0.23868822       0.57987096       0.73133284       0.32360208       0.14100814
H       20.50050874      20.26820659      14.82622534       0.07612594      -0.12267420       0.13158281       0.62754542      -0.25700310       0.02643294
H       21.12853653      21.05790868      16.33312713      -0.16750909       0.07085369       0.16553338      -0.81861871      -0.84407264      -0.48412955
C       22.47559543      19.05371590      16.82183881       0.50335188      -0.68791614       0.76772195      -0.86860776      -0.35785028      -1.82346475
C       23.43860921      18.56943447      15.69863513       0.77710332      -0.20719570       0.04155169      -2.18101597       0.29848963       0.45655712
H       22.63621679      20.11284947      17.04916057      -0.00902693       0.11593783       0.02979415       0.52171779      -0.19490156       0.29126659
H       22.64040907      18.38336211      17.67984206       0.33959992       0.06241035       0.16123827      -0.22660650       0.33784002      -0.04691981
O       23.37975460      19.45278593      14.59346151      -0.28505796       0.64098531       1.21564364       0.10427465      -0.73225033       0.25537843
H       24.36093916      18.52892680      16.19608976      -0.04499876      -0.12657492       0.26761272       2.07956982       0.23360887       0.36678547
H       23.21461832      17.51195666      15.45202834      -0.08140707       0.08708980      -0.02988039      -0.32706508       0.62570101      -0.25836605
C       24.00806108      18.94019724      13.39743233       1.27815897       0.18296299       1.55154901      -1.47609437       0.56331360       0.39284357
C       23.59250477      19.88645894      12.28738240      -0.64202936      -0.13424890       0.38133852      -1.21606195      -0.23891772       1.80002534
H       25.05558984      18.94043103      13.54687525       0.01822071       0.07726737       0.12704172       1.37779438       0.04280605       0.02873307
H       23.66904796      17.93382141      13.21706324      -0.02351238      -0.31571624       0.33786195      -0.27231088      -0.59205627      -0.20369893
O       24.26754492      21.08181796      12.35930281       0.35233974       0.42954437      -0.57611570       1.43436825       1.23970628      -0.48720527
H       23.69952540      19.50893233      11.31819384      -0.07050410       0.08938238       0.20329239       0.42622012      -0.85973078      -1.47468960
H       22.51738952      20.09054056      12.43241529      -0.20103496       0.22202186       0.22475743       0.09636880      -0.28677002      -0.15365039
C       23.75022551      22.00176756      13.26357473      -1.44326428      -0.38077144      -0.39180510      -1.53776300       0.29665688       0.57389402
C       23.84274640      23.42713428      12.81105139      -0.31318796       1.65094893       0.31041955       0.88121945      -0.57023048       1.25253081
H       22.64331628      21.83369115      13.30985958      -0.22562696      -0.46479151      -0.06530470       0.62224025      -0.02604021       0.39225158
H       24.15434460      21.92112307      14.27165760       0.12578881       0.05346514       0.18575511       0.21907507      -0.34729150       0.17169930
O       23.04455522      23.56198078      11.71411483      -1.11274096      -0.08547821      -0.95884876      -2.19414425       0.62213385      -1.68484187
H       23.51439032      24.03384557      13.68031052       0.10741841      -0.23960059       0.27538591      -0.06208462      -0.11241347      -0.29434457
H       24.85426192      23.73568893      12.57108772      -0.00137257      -0.12722003      -0.01385015       0.58562690       0.12295347      -0.06143068
C       22.36604290      24.82991270      11.71854370      -0.71584503      -1.00242226      -0.43210542       0.92706996      -0.62159467       1.07107961
H       21.44449389      24.85223271      12.32416259      -0.18942831      -0.18788012      -0.05409524       0.35579792      -0.27987599       0.12449884
H       22.10033623      25.13122138      10.72457517       0.16044590      -0.11101399       0.31044119       0.22527850       0.17185901      -0.63013047
H       23.12814644      25.42385569      12.21491431      -0.04810491       0.21969342       0.03788846      -0.44680122       1.34523356      -0.41121936
H       25.45629502       8.70110550      10.58105452       0.33099549      -0.09029957       0.05366867       0.38253504       0.54094839      -0.18893149
C       25.51540830       7.64109687      10.73228057       0.05139351       0.20754548       0.52572484      -0.72396541      -1.74733424       1.84497166
O       24.25839047       7.03896174      10.33124773      -0.26248964      -0.05000147       0.34530858       0.85434794       0.48535168      -0.51406217
H       26.37496036       7.15211137      10.24722111       0.08489249      -0.19383581      -0.20252392      -0.29283798       0.40575036      -0.07561956