2285
Lattice="29.539619687585116 0.0 0.0 0.0 27.338221813091398 0.0 0.0 0.0 29.576245011837926" Properties=species:S:1:pos:R:3:momenta:R:3:forces:R:3 Origin="-14.8295 -14.8295 -14.8295" charge=0 spin=1 energy=-2223665.603926317 stress="0.003720058361068368 -0.0006026960327289999 0.0001611076877452433 -0.0006026960327289999 0.0018516884883865714 -0.0007353922119364142 0.0001611076877452433 -0.0007353922119364142 0.0007551017333753407" free_energy=-2223665.603926317 pbc="T T T"
C        3.38115144      16.50115761       2.92523328      -0.47470170       0.79257047       0.11662933      -0.82099640      -0.20922515      -0.70098710
H        3.31905147      15.52697328       2.47405059       0.03585441      -0.15384101       0.10119285       0.09103718      -0.51861781      -0.26273099
O        3.15009080      16.30711833       4.32228639       0.09802888       0.93717814      -0.34181844      -1.25613523      -0.45837072       0.80334461
C        4.73063474      17.04246726       2.94824628       0.13190223      -0.03583473       0.46132123       4.51280642       1.23414719      -1.90900099
C        4.30218362      16.27181101       4.99014401      -0.05969077      -0.55584348       1.26051632      -0.33205837       1.06928861      -1.18703747
H        4.78112922      18.12169047       2.64017967       0.21631395       0.10611543      -0.07490133      -0.14944619      -0.63304478       0.80475891
H        5.53364316      16.56368064       2.29085429      -0.06053542       0.08904922      -0.24862875      -1.46407330       0.25497571       0.41623360
O        5.25843218      16.83964924       4.26721108       1.07605591      -0.03953641      -1.21374970       0.22780991       0.15643449      -0.30157316
O        4.47391342      15.87588216       6.09068765      -0.13140859       1.27448492       0.18221808      -0.19290489      -0.70149046       1.66749549
C        2.41866803      17.44520989       2.22937199      -0.32773549       1.56337522      -0.41619344      -0.17597769      -0.38754091       0.80310041
H        2.29028192      18.34136751       2.84611861      -0.38751963      -0.30427576       0.00283293      -0.13463354      -0.09191035      -0.25897554
H        1.48721195      16.89746798       2.14368344      -0.13174890      -0.09507820       0.10257544      -0.40649641       0.33489746      -0.20455137
H        2.78655931      17.71503770       1.23402086       0.10829817       0.03473737       0.30279593       0.11639475      -0.12467674       0.29509121
C        0.49975568       8.60744833      19.70800625       1.81832607      -0.08730030      -0.60720007      -0.59129030       0.29683942       0.80235910
H        0.31324140       9.35620620      18.94186361       0.19605532       0.31400468      -0.21573675      -0.02070477      -0.28811854      -0.51717281
O        0.50059061       7.26976190      19.13962930      -0.12808740       0.65084095      -0.83995262      -0.73222810       0.26149055       0.05059608
C        1.92235330       8.73613690      20.22004734       0.85970742      -0.66345031       0.15670965      -1.16956675      -1.92622542       0.07631943
C        1.75011162       6.94037164      18.82129711      -0.82351085       0.10050222       0.19893884      -0.62203860       1.24661207       0.25756371
H        1.95843512       8.31252683      21.25531798       0.00448428      -0.09631935      -0.03674767       0.45402029       0.23209900      -0.78581309
H        2.30414914       9.71732342      20.16701912       0.08674465       0.24918215      -0.04725993       0.62359583       0.92368925      -0.04761279
O        2.59038092       7.86686272      19.26180823      -1.36309948       1.10158221       0.53167042       1.32919466       0.87330580       1.01138282
O        2.08113349       6.01776861      18.16675241      -1.37759704      -1.16693053       1.34003701       0.30950105      -1.57987261      -0.90894103
C       29.00240095       8.75629715      20.80013289       0.55172051       0.26813325       0.39112742      -0.32996759      -1.50611579      -0.42824912
H       29.20226595       8.00463066      21.59711704       0.07045967       0.15523825       0.05624140      -0.14383149       0.69355434      -0.29028386
H       27.96269993       8.63441120      20.44932114      -0.28415514       0.51688727      -0.06513890       0.60009509      -0.09852544      -0.10881668
H       29.01630803       9.75837717      21.13785779       0.03678086      -0.11132449      -0.14770045       0.34305206       0.92951256       0.80004239
C       10.38394518      10.47373572       6.71403612       0.43002902      -0.03690770      -0.10961966       0.30288696      -1.73176110      -0.50603408
H       10.16739783       9.39661471       6.48563707      -0.11150300       0.17831788       0.00392324      -0.21495846       0.75927562       0.35562837
O        9.18602625      11.22587592       6.59332441      -1.40538945       0.81860024       0.98151663      -0.91599160       0.20967466       1.13071597
C       10.82833795      10.62852961       8.16912441      -0.39824648      -0.29012771       0.34779772       0.39793205       0.53534448      -0.30488929
C        8.69314082      11.41054626       7.83313716       0.46561640      -0.32450949       0.51422146      -0.26113248       0.05699298      -0.88084930
H       11.62126123      11.39494480       8.36355076      -0.17016400      -0.27301620       0.11357375      -0.84931767      -0.25870112      -0.37243086
H       11.20427755       9.68713458       8.59306753       0.00006533      -0.10975722       0.07844026      -0.62544227       0.19294661       0.05392963
O        9.57890359      11.05427070       8.74672637      -0.33362753       0.80998461       0.01982872      -0.00200700      -0.41549692       1.44707334
O        7.57998549      11.82698083       8.06720792       0.14484556       0.34547356      -0.30895056       0.62621534       0.11053566       0.16333415
C       11.31675949      10.96973509       5.70866426       0.84974162       0.14922078      -0.54943810       1.49208438       0.34395826      -1.56772292
H       11.62063828      11.97345496       5.94064563       0.17648142      -0.12856451      -0.00482513       0.18378669       0.64794010       0.29512814
H       10.89408771      11.03402101       4.67574320      -0.07228870       0.13409797      -0.24798641       0.31002191      -0.61104804       0.85586542
H       12.24187281      10.35872634       5.75266229       0.18431041       0.03617149      -0.07709937      -0.48818865       0.19931823      -0.39350328
C       25.50134776      24.17332573       8.85115714       0.03629442       0.49383266       0.04373600       0.67068791       0.53699106       0.87028617
H       26.30927191      23.62851751       9.44869359      -0.18445745      -0.05128769      -0.13711149      -1.38472629       0.32783598      -0.91805607
O       24.25707316      23.44539104       8.76463985      -0.54349316       1.06209860      -0.19253331      -1.16783965       1.23289478       0.99744982
C       25.07892847      25.44894894       9.66254316       0.68358588       0.61000828       0.67827531       1.12374699       0.60871416      -2.20773768
C       23.22218581      24.28398215       9.17418446       0.04866839       0.53104580       0.37612105       0.62837332      -1.97623134      -0.34462401
H       25.38434336      26.34262091       9.05072564       0.16714004       0.02416831       0.12881785      -0.31536019      -0.61769879       0.90240157
H       25.52495178      25.48394894      10.64359352      -0.04725172      -0.03627413      -0.17575591      -0.25489447       0.06900104       0.38432628
O       23.64229072      25.41151148       9.68950012      -0.91068501       0.75956413      -1.30758947       0.66278112       0.19441316       0.36841017
O       22.07093717      23.96492188       9.09265865       0.02113272       0.50061009       1.18311071       0.06497031       0.09336026      -0.21007678
C       25.94741933      24.44544133       7.42806722       0.15712345       0.27232353       0.27586313       2.01528192      -1.35363781       1.24990559
H       25.27738806      25.05521956       6.92127533       0.02135554      -0.13572984      -0.16083650      -1.49166882       1.08945692      -0.91764998
H       26.05894110      23.46978172       6.93406947       0.03015400       0.20901880      -0.04740662      -0.04109053       0.45113719      -0.05974881
H       26.92422914      24.95091967       7.43796901      -0.08491728       0.27327083      -0.24213049      -0.22284088      -0.16408925       0.05247455
C       24.39884469      20.42622373      22.38583373      -0.60183738      -0.08249148      -1.31785060      -0.39646247      -0.28423348      -1.31200051
H       24.99434679      20.87158172      21.61154581      -0.27576572       0.03355038       0.28109394       0.52229786      -0.12716152      -0.63785577
O       23.08350694      20.94431775      22.12430403       1.03228671      -0.70544819      -0.15993440      -0.83865452       0.59015274      -0.28753281
C       24.21120419      18.91901272      22.20956969      -0.69344926      -0.61795280      -1.08245092       0.93204713      -0.07366776       0.89241058
C       22.28991141      20.01476387      21.56637516      -0.67932419       0.27727718      -0.35124952       3.02056360      -1.09450948       1.76759410
H       24.34184832      18.36028283      23.15262863       0.02417781       0.04488136      -0.05533181      -0.33276182       0.31559688      -0.09328945
H       24.94158644      18.46798576      21.53835202      -0.08619678      -0.10333855      -0.19217299      -0.22910227       0.19960576      -0.43095860
O       22.89726908      18.80013209      21.74911335      -1.05083211      -0.39936433       0.11628506      -1.38733101      -0.45594695      -0.97404212
O       21.22896639      20.17549864      21.10385577       0.58405638      -0.23962884      -0.89609852      -1.91036069       0.42774415      -0.79179740
C       24.89417710      20.90377740      23.66411053       0.73121465       0.72848751       0.13029605       0.62640941       2.10804176       0.88034844
H       25.99916934      20.76011299      23.67356834       0.03117462      -0.06914665       0.00673770      -0.87636381      -0.54546535       0.69041139
H       24.24120849      20.61118969      24.49253842       0.02945273       0.15793669      -0.21972974       0.74073088      -0.50133067       0.14499430
H       24.81412254      22.01479459      23.65768678       0.22642154       0.02091240      -0.01189269      -0.04915139      -0.50431949      -0.11864474
C        1.34569069      16.95948269      16.80356683       0.11016606       1.45102597      -0.73527368      -0.99357951       2.60170555      -0.16858363
H        0.65112937      17.78578554      16.43116209       0.10687456      -0.31216634       0.24261668       1.19623780      -0.70463884      -0.02686706
O        1.01653217      15.81480795      16.05113286       0.93181214       0.54955936      -0.99502958       0.62446564      -1.01342380      -0.64622849
C        2.85985286      17.15394516      16.49166020      -0.63146862      -0.22088760      -0.45888247      -1.12815487      -0.03630158       1.06960022
C        2.00750588      15.58051079      15.20855484       0.57284687      -0.33020943       0.44552976       0.31209031      -2.32308650      -3.10073185
H        3.38712504      16.51545569      17.21228924      -0.08598022      -0.11204161       0.07640440       0.35368362       0.65416580       0.14968894
H        3.16127017      18.21082505      16.46276241       0.27199847       0.01912782      -0.12754386       0.20159398      -0.54559368      -0.17809547
O        3.00520419      16.47574196      15.24528168      -1.04188576       0.85494188       0.62778414      -0.61940968       0.00889899       0.51373386
O        2.03274882      14.67378678      14.36849181      -0.63476642       0.51340197      -0.20828944      -0.37619480       1.77159846       1.87447119
C        0.99900613      16.77157947      18.24465359       0.41212536       0.35408452      -0.33342312       0.22702049      -0.07709955       1.05042756
H        0.13149788      16.09816423      18.36341611      -0.09383510       0.29020198       0.01980755       0.22022280       0.61684752      -0.13298744
H        0.79553388      17.75982466      18.73816420      -0.10779600      -0.14783850       0.12335897       0.33900759      -1.10705841      -0.39461645
H        1.84311961      16.26066236      18.72436496       0.32566999       0.15764014       0.27573190      -0.20092984       0.12252507       0.29623351
C       13.72388007       2.39270035       2.22148937      -1.20490551      -0.36117220      -0.06205108      -0.75659674       0.55726165      -0.91548240
H       13.09830634       2.78817531       3.01215551       0.00324714      -0.27885656       0.02718313      -0.02636836       0.24146520       0.09345955
O       12.77825025       1.90303622       1.19297331       0.95091868      -0.15010807       0.03872082      -0.10629820       0.40846109      -0.38781068
C       14.46754924       3.50984308       1.46708860       0.52006510       0.84900220      -0.22485976      -1.41525626      -1.53474319      -0.83855671
C       12.64258528       2.76305929       0.14798613       0.22360280      -0.42144747       0.30916662       3.14577985       0.90492779       2.83275628
H       15.40862714       3.13205868       1.06816247       0.06581019      -0.03345703      -0.10621057       0.18358308       0.26009494      -0.00263849
H       14.53960821       4.36138793       2.08255616       0.14010605       0.15386815       0.06744834       0.49921000       1.11671734       0.54398626
O       13.57936420       3.83324740       0.35528600      -0.11071727       0.20269009       0.54151509      -1.01451600      -1.37933266      -0.26125720
O       11.95238194       2.61643525      28.79012164      -0.51519088      -0.03488146      -0.88118568      -0.83860135       0.25692999      -0.89870387
C       14.48288795       1.21876980       2.72342510      -0.16123302       0.01592958      -0.05272354      -0.08899502       0.06733584       0.02392014
H       15.10946677       0.81872888       1.94510736      -0.15342485      -0.40968860       0.20161568      -0.07049255      -0.68322909      -0.47815716
H       13.72757873       0.55766174       3.13053249      -0.08856178      -0.27207495       0.08040030       0.13176867      -0.72051656      -0.21012914
H       15.15010236       1.43774868       3.53224098      -0.15747777      -0.11788100       0.10420198       0.18947463       0.64958268       0.60864812
C       28.17358972       8.50528277      26.66328975      -0.25546582      -1.21983560       0.60029264      -0.45140639      -0.08086900      -0.32851818
H       28.54410496       9.51239679      26.40113239      -0.30236165       0.40704220       0.22159147       0.18799490      -0.71364325       0.54038393
O       27.02251588       8.34664948      25.79037374      -0.69657695       0.65965968      -0.17372155       0.28921324      -1.83252251      -1.21206069
C       29.07699242       7.32608531      26.25690333      -1.02462400      -0.69215116       0.30369690      -0.72430182      -0.39604187       1.02804589
C       27.04011456       7.05933702      25.32209581      -1.20730802       0.01245779      -0.26298302       0.23905693       0.75598264       0.24067701
H        0.04514547       6.89383960      27.13216156      -0.08374281      -0.09444224       0.05865295      -0.12207053       0.27051309      -0.39535159
H        0.20675730       7.45503439      25.44251795       0.17345407       0.00217448       0.07576261       0.56294197       0.49991596      -0.49415153
O       28.09335834       6.34118624      25.78313198      -0.42675409       0.42989947       1.59212159      -0.32349181       1.27568388       0.00779513
O       26.22677289       6.61070344      24.56714733      -0.08454857      -0.24975896       0.44974165      -0.41915423      -0.13521358      -0.02041307
C       27.63113674       8.30703752      28.05386155      -0.50523079       0.00411870       0.15442690      -0.03732547      -0.17993757       0.35300463
H       28.40055134       8.00256708      28.71931066      -0.19532031       0.13275119      -0.06168260       0.90020007      -0.72591591       0.50262934
H       26.79780878       7.57995819      28.10968602       0.28243398      -0.16474271       0.18025034       0.54083228       0.28726888      -0.24592850
H       27.31796144       9.20619688      28.51173860       0.18250802      -0.28690558      -0.10390249      -0.86209226       1.17857957       0.07306997
C       18.66357409      22.40863949      13.88038501       0.93906003       0.27133138       0.98283754       0.44271564       0.20408358      -0.48715702
H       19.19420022      22.36516624      14.83974977      -0.30210804       0.02143799       0.00416531      -0.13661113      -0.22470498      -0.28149983
O       19.71674805      22.69824660      12.85690673      -0.21898129      -1.08020399       0.47704630      -0.32545543      -0.40925664       0.29406229
C       18.11568653      21.00956654      13.38243756      -0.20987369      -0.80133550      -0.23435228       0.70758939       2.65083551      -0.15568075
C       19.54122354      21.89330781      11.80260424      -0.17427723       0.94586948       0.93214156      -1.11771154       0.39321762       0.75632292
H       17.04852673      20.98950108      13.35037061       0.15788498      -0.25375204      -0.07365811      -0.65082002      -0.09904456       0.11549637
H       18.51266110      20.22462019      13.97895672       0.12186117      -0.03067409       0.09853166       0.41562530      -0.82347882       0.09861307
O       18.57012520      21.00930577      12.01788561      -0.36717015       0.41494492      -0.89223756      -0.41783381      -1.18269408       0.45714673
O       20.06538644      21.95769710      10.74259778      -0.61201311       0.02091395      -0.17807431       1.21086228       0.36156297      -0.81827343
C       17.61954936      23.53668843      13.90646323       0.18041333      -1.08435301       0.70985290       0.34380347      -2.14304590      -0.59206581
H       17.13571138      23.48267845      12.92100747      -0.02638218      -0.09135284      -0.06456601      -0.34937069       0.11178156       0.36075181
H       18.05946562      24.53058064      13.99379692      -0.10093473       0.11753159       0.09560858      -0.23474498      -0.21983404       0.71942264
H       16.95207534      23.11648957      14.70471053      -0.00018451      -0.01544134      -0.15133032       0.07718629       1.34103584      -0.50584608
C       21.27646054      12.61498872      26.68576232      -0.63877947      -0.30416199       0.49837955       2.18486071       0.35671097      -0.63032800
H       20.63238078      13.17818259      26.05907806      -0.09124997       0.08152210       0.00174786      -0.72161955       0.71831644      -0.39709145
O       22.23312546      13.58691069      27.31561995      -0.61312997       0.02128099      -0.19529682      -0.60452157      -0.55127847       0.86332619
C       20.67705313      11.98963507      27.86380785      -0.61311385       0.53944909       0.42381345      -2.64423919      -1.97792840       1.50778615
C       22.00479372      13.58164095      28.63190493       0.46822896       0.08354712       1.03845640       0.19285859       2.73605490       0.56181234
H       21.19205617      10.99598149      28.01819474      -0.11993513      -0.12103756      -0.09485838      -0.92358589       1.07897961       0.30962235
H       19.51256712      11.89598417      27.82885568      -0.26845982       0.07730607       0.00493611       2.28405571      -0.01825640      -0.01403301
O       20.95948109      12.86764247      28.98185399      -0.77541821      -0.24504565       0.47565772       0.13267940      -0.89909101      -0.43854439
O       22.55742958      14.34586240      29.44291934      -0.15550012      -0.72532012      -0.44350327      -0.49724329      -1.32976711      -1.27425492
C       22.15905233      11.67229912      25.89092546      -0.58118220       0.33041003       0.38647452      -1.06155086       1.11447036      -0.53666699
H       21.63257412      10.80879136      25.48860402       0.22554462       0.07946265       0.09998135      -0.04718540      -0.09226658       0.19206387
H       22.98224821      11.44696990      26.51717310      -0.05336628       0.04109336       0.19416283       0.81501311      -0.80476129       0.50069028
H       22.51784030      12.25352384      25.05909570      -0.23222532       0.00067108       0.10791921       0.26294014       0.02021388      -0.58159304
C       23.26798880      10.19499348      17.79371715      -1.29977868      -0.17311828      -1.21940304       0.49226302       0.63935399       0.13697957
H       22.54897776       9.58073214      18.33658115       0.02827646       0.32745880      -0.04331294      -0.46426988      -0.09050000      -0.57489705
O       22.85925530      10.50429379      16.39985606       0.82412320      -1.24740635       0.04560654      -0.79747170       0.74149328       1.21509171
C       23.31173911      11.59424569      18.40419403       0.70857988      -0.22599299      -0.48617533       0.87735927      -0.06066435      -1.08964801
C       22.20381179      11.70052784      16.43998163       0.73991962      -0.11204741      -0.18226508      -0.83228284      -0.78540689      -0.81671953
H       24.28369771      12.00419213      18.16599185      -0.01296006      -0.09818091      -0.02220262       0.38044220       0.30805773       0.07867436
H       23.14347838      11.68011569      19.46410025      -0.30292447       0.03710481       0.07764320      -0.70266116      -0.11773717       0.22757795
O       22.37476588      12.34573471      17.59628571      -0.56313778       1.07532094       0.84096981      -0.31288064      -0.20352018       0.02051641
O       21.45797296      12.09119586      15.55449828      -0.04807754       1.03267598      -0.15481430       1.36912942      -0.45021975       0.82426310
C       24.60523635       9.52038046      17.77079021       0.13178630       0.73292484      -0.36121687       1.00313759       0.55066991      -2.25280523
H       25.42921012      10.12953167      17.22088020      -0.28605711      -0.23119594      -0.13141301      -1.40357637      -0.72415990       1.43924153
H       24.54710813       8.62204782      17.16460024       0.14855195      -0.40553893       0.03646138      -0.25412682      -0.31748798      -0.21567999
H       24.86838025       9.15356574      18.73491943       0.29654320      -0.26787113       0.03736925       0.53352058       0.19227619       0.96195912
C        1.89118273       2.02187669      16.54592599       0.71854655       0.25526183       0.20062267       0.43093300      -0.94917721      -1.12348831
H        1.81798002       2.50079852      15.49858970      -0.08537754      -0.01183580       0.01879407       0.06337501      -0.47984245       1.62121034
O        2.55951733       0.74963949      16.36703433      -0.04042158      -0.61805349       0.04908808       1.41104662       0.73200822      -0.35359457
C        2.88422496       2.76312460      17.44973728       0.43929388       0.75010969      -0.74000147      -0.27430311      -0.45101064      -0.29695246
C        3.90322137       1.01833227      16.42258910       1.06764636       0.04152451       0.18327156      -2.60563540      -2.25437307      -0.40152204
H        2.77243342       2.64908067      18.54288426       0.18407479       0.04266825      -0.22730929      -0.11659516      -0.26579529      -0.59115869
H        2.93211674       3.80121530      17.20924977       0.08717720      -0.06557770      -0.01998387       0.05060102       0.77062398      -0.07026020
O        4.12376533       2.14893129      17.01150804      -0.33818748       0.16199059      -0.55548176       0.93352807       1.49664521       0.55776972
O        4.67457919       0.21591443      15.99618856      -0.06173359      -0.11023900       0.49597048       1.47007096       0.05049969      -0.14152054
C        0.58684585       1.69261657      17.13341259       1.04043973       0.46389145      -0.89999918      -1.29004443       2.29251266      -0.97286761
H        0.64248689       1.42397302      18.14206504      -0.13554192      -0.08144723      -0.04334971       0.23949128      -0.38629097       1.52142942
H       29.48942805       0.98838157      16.60875192      -0.18298407      -0.07003759      -0.07861673       0.23058346      -0.01015372      -0.46543235
H        0.13661826       2.69259551      17.05450756       0.16682548       0.22710657       0.01745741      -0.87401402      -0.31855017       0.46944019
C       25.64490767       0.73567465      22.37334554      -0.45802427       0.66537030      -0.24073559      -1.16916490       0.67668909      -0.41619444
H       25.79043048       1.83874589      22.54614011      -0.13069630      -0.18200132       0.27575138      -0.20518942      -1.23555338      -0.12663038
O       25.81882716       0.57256598      20.91060123       0.91727199       0.29096767       0.08784650      -1.40627062      -0.20157869      -0.78068072
C       26.84745405      27.31253050      22.73145471       0.62567467      -0.15777875       0.09562126       2.74453259       0.33280668       0.66588068
C       26.51131282      26.78799991      20.61035770      -0.10462701      -0.29030046      -0.93022836       0.38832751       0.46551695       1.10285950
H       26.95003009      26.70548915      23.57008907      -0.15966642      -0.16725025      -0.00836578      -0.77441388      -0.70042241       1.95988333
H       27.61283254       0.74723367      22.86461473       0.04211538      -0.32742409      -0.16287887       0.62017643      -0.44965950      -0.45876217
O       27.17934903      26.37787010      21.68334050       0.13995569      -0.29987475      -0.40099058      -0.35872093       0.71215564       0.21732683
O       26.60921502      26.24156569      19.55824130       0.58170489      -0.17192917       0.01514847      -0.47624648      -0.08582078      -0.96305197
C       24.30284827       0.29120001      23.01379009       0.76837229       0.39670634      -0.51775067       1.55689478      -0.62725061       0.45798558
H       24.14454113      26.52612759      22.93626045       0.09192788      -0.09285163       0.17951887       0.18885824       0.77479243       0.12874044
H       23.47945900       0.79695105      22.57587589      -0.00456845       0.36427927      -0.06077048      -0.80589777       0.48807061      -0.45430833
H       24.37980011       0.62196900      24.09821268      -0.06265083      -0.05161114      -0.10011475      -0.13517052      -0.54757494      -1.18536353
C       10.62460059       5.30747408       3.73702404       0.18653443      -0.08751451      -0.87588553      -0.73428679      -0.46051595       1.06719065
H       10.51978316       4.99285015       2.71568185      -0.18478626      -0.08875309      -0.05121644       0.34661189      -0.44281143      -0.52648360
O       11.55437077       6.39223595       3.77035421      -0.09828545      -0.16609623      -0.17396151      -0.63731205       1.00515258      -0.36406243
C        9.26623493       5.93146988       4.12881114      -0.30224540       0.27670920      -0.77481556      -1.21168578       0.12618120      -0.91770595
C       10.86148056       7.52231235       3.72261264       0.02694563      -0.49793970       0.15225329      -0.17112400       2.58806896      -0.16738731
H        8.80781763       5.66979016       5.09716108       0.06931028      -0.01039875       0.08599241       0.80467838       0.33897096       0.01849702
H        8.45615819       5.71035044       3.38844265       0.47211642       0.22104118      -0.19496456       0.91263914      -0.07913382       0.41652045
O        9.51256863       7.35358576       3.98094956      -0.72659343      -0.23075865      -0.59717251       2.04735947      -0.11265535       0.00734332
O       11.37143676       8.62108245       3.48240841       0.66834224       0.52693690       0.31857786      -1.21231425      -2.36152434       0.73475403
C       11.19444573       4.29207838       4.67723364       0.61820728      -0.31123447      -0.07585774       1.01021612      -0.62843281      -0.63420433
H       10.65772362       3.37315273       4.59562328      -0.01277627       0.10508995       0.07927686      -0.59117025      -0.61798471      -0.19792162
H       11.13380744       4.59477047       5.72991593      -0.25818770       0.07257420       0.04414048       0.35618207       0.16355503      -0.34159374
H       12.24077923       4.03753792       4.32425529       0.24802389      -0.04635274      -0.05647101      -1.02324259       0.54625559       0.87925136
C        9.62912144      25.42138016      10.31235012       0.54830140       0.03966417      -0.40097981      -0.91942436      -1.62433553      -1.51477551
H        9.62115154      24.44692647       9.75415644       0.00630354       0.06399990       0.32098745      -0.04201656       1.14157379       0.47076961
O        8.27532051      25.93216999      10.12065474       0.19218975      -1.00881367      -0.65887927       0.41634905      -0.12118263      -0.24354023
C        9.69770284      25.13487384      11.78518808      -0.52847577      -0.47681373       0.36740868      -1.90573943      -0.14097026       0.59337306
C        7.72702873      26.21244207      11.29760785      -0.96403218      -0.51172227       0.51295336       0.38850173       0.31098095       0.18350306
H       10.59783844      25.53502450      12.19092606      -0.40871012       0.03200453       0.00174207       0.60351628      -0.19532667       0.71374696
H        9.41740434      24.09349748      12.08431221      -0.29974690       0.08308555      -0.15870730       0.79288667       0.92089653      -0.47113135