2150
Lattice="27.878453320663247 0.0 0.0 0.0 27.09508049391947 0.0 0.0 0.0 29.455238182314606" Properties=species:S:1:pos:R:3:momenta:R:3:forces:R:3 Origin="-14.5497 -14.5497 -14.5497" charge=0 spin=1 energy=-1764854.1377004615 stress="0.00035490316804498434 0.002021556254476309 -0.0004763914330396801 0.002021556254476309 0.0004049619601573795 0.0002816696360241622 -0.0004763914330396801 0.0002816696360241622 -0.0004964341060258448" free_energy=-1764854.1377004615 pbc="T T T"
C       27.00732086      11.56974862      16.55219152       0.74840228       0.30522472       0.81735760      -0.46367157       0.92566156       1.81967878
H       26.48611520      11.62272160      17.54900501      -0.06479462      -0.19912876      -0.18807025       0.43432674      -0.43428278      -0.73176152
O        0.54395416      11.69633555      16.84528071       0.62633636       0.10111923       0.68114919       0.38543561      -0.70217407       0.35163090
C       26.89726364      10.21336626      15.91105769      -0.51245920       0.47678956       0.25770117      -0.59036750      -0.15894188      -0.86142313
C        1.10552114      10.45623810      16.77802601      -0.21890251      -0.24726602       1.39627897      -1.69847143       0.13874823      -1.58804154
H       26.80626124      10.31333657      14.82770804       0.01587030       0.20382618      -0.01811531      -0.19112530      -0.06995197      -0.07011192
H       26.07876283       9.58612344      16.29697212       0.10895924       0.10907133       0.26812648       0.36966142       0.35020122      -0.03404103
O        0.26777432       9.60653702      16.16365208      -0.36239165      -0.20901495       0.44244154       0.32713065      -0.47089934       0.59068233
O        2.19820626      10.14565817      17.08570602      -0.30452346       0.60844560      -0.53631889       1.49809933       0.16416426       0.92424136
C       26.52002213      12.76989146      15.78988474      -0.37052438       0.12932169      -0.34575175       1.14560282      -0.11091970       1.39400542
H       26.65458364      13.65214994      16.43450300       0.33362066      -0.01246477      -0.23421764      -0.09464234      -0.17312583      -0.44973770
H       25.50330269      12.58648026      15.63766911      -0.17816201       0.04524176       0.08290361      -1.87314665       0.04665719      -0.36238450
H       27.00667537      12.87236223      14.85597067      -0.02726235      -0.12104704      -0.07230324       0.65001661       0.22268242      -1.03822184
C       19.64592579      24.44601261       6.64723065      -0.76118970       0.74086738      -0.57828669       0.33214480       1.92315328       0.41843927
H       18.73981992      23.95766298       6.29274421      -0.05290150       0.01144613      -0.04169019       0.57388127      -0.14732718      -0.39007491
O       19.42421982      25.92778292       6.36142655       0.46167436      -0.72269132      -0.53516893      -0.71506935      -2.44014597      -2.01046515
C       19.66735316      24.50071276       8.21449023       0.59434915      -0.66741959       1.00392074      -1.08429456      -1.57955718      -0.79451394
C       19.82684513      26.62028724       7.34288882       0.03290196       0.33451700       0.06103823      -0.74684501       0.73679119       3.07425380
H       20.36035591      23.77985194       8.69109198       0.07436604      -0.23894291      -0.20119504       0.22636375       0.93123102      -0.44348451
H       18.68591488      24.18615292       8.60388449      -0.00886251      -0.12361639       0.44474586       0.15528791       0.36849684      -0.16628741
O       19.88328408      25.84610579       8.49657933      -1.38857254       0.59815301      -0.18820220       1.27799511       1.77025557      -0.13855259
O       19.96275925       0.71865906       7.33787606       0.26923792       0.70847208       1.05114245       0.41792077       0.12777601       0.36716467
C       20.98289926      24.22374831       5.94589930      -0.33909875      -0.67405246       0.42313982      -0.32203922      -3.01808572       1.05754888
H       21.77382565      24.48621723       6.67284323       0.10352031       0.01359136       0.04040252      -0.10248510      -0.04180986      -0.49569571
H       21.05216708      24.81752889       5.04606269       0.08372134       0.04154595      -0.08051920      -0.02088445      -0.12534219      -0.31551191
H       21.04269103      23.07624731       5.73482626       0.09417099      -0.28622487       0.29697774       0.20513122       2.36388350       0.03465939
C       21.40187570      20.75464014      16.58734246      -0.44160891       0.95997331      -0.38397394      -1.14915371      -2.06884813      -1.23640656
H       22.32966342      20.29260718      16.94740895       0.08268238       0.16328085      -0.10656145       0.01366811       0.78150570       0.04895648
O       21.19768650      19.99407464      15.22886058       0.12365078      -0.00741598       0.04702781       0.34048343      -0.90165138       1.57692862
C       20.23060599      20.07026543      17.31181644       0.36159832      -0.56817212       0.29677403       2.13223839      -0.18045607       2.06341624
C       20.83147370      18.71323170      15.59525556      -0.57910813      -0.77507264      -0.65005113      -1.27759039       0.98450917      -1.17086828
H       19.27692884      20.54321859      17.16228907       0.23895275       0.33234717       0.05015087      -0.38227698      -0.20125844      -0.54727077
H       20.43200024      19.98655164      18.40780933      -0.12315502       0.01617503      -0.18871549      -0.24878000       0.35092959      -0.74061739
O       20.33475364      18.69260536      16.86660767      -1.01441310       0.53855097      -0.29765836       0.18245128       0.33120912      -1.49998939
O       20.79234164      17.77198110      14.81976366      -0.26547278       0.61366428       0.29052913       0.36619294       1.11212218       1.36138618
C       21.30502932      22.24597080      16.45001092       1.17021456       0.49842657       0.37393105       1.22493637      -1.31589997       0.15862352
H       21.54891824      22.58634384      17.44642358       0.00925999      -0.09693651      -0.25573554       0.15070717       0.55063522       0.15300906
H       20.29886843      22.49235439      16.25603639      -0.09160183      -0.01587677      -0.43324598      -1.12564147       0.60388398      -0.42437813
H       21.99898220      22.64008862      15.70602622      -0.03640211       0.06810523       0.03268763      -0.08870658       0.04944665       0.09551045
C       25.09456506       7.05896240      12.53379989       1.44245547      -0.60460755       0.20811134       0.67410785      -1.02009630      -1.99398506
H       26.15484947       6.81893055      12.32041503      -0.08776703       0.05265455       0.03972696      -0.66130185      -0.94247001       0.23474015
O       25.24230610       8.35340719      13.03913389      -0.26096674      -0.17973254       0.03201156      -0.67343986       2.35530400       2.00654292
C       24.38703080       7.34183634      11.21956670       0.02830477      -0.69455582      -0.93104650      -1.65232146       0.76715684      -0.95799226
C       24.92419372       9.33250257      12.15927220      -0.33420515       0.18191265      -0.29826705       0.45830265      -0.81942028      -0.73821253
H       23.28646968       7.32364332      11.30542175      -0.20972800       0.11210432      -0.10845418       0.36085400      -0.29171035       0.42916751
H       24.58463299       6.74055079      10.32027505      -0.02631047      -0.09125802      -0.02702725       0.68787879       0.29648757       0.51954943
O       24.65567513       8.76070167      10.97349892       0.73632255      -0.99433444      -0.50128543       0.22214608      -0.34916002      -0.03503048
O       24.98288149      10.51574066      12.34635387      -0.53982982      -0.00356474      -1.25300676      -0.10678905      -0.50363249       0.42804804
C       24.26202785       6.11622425      13.38317567       0.07913411       0.36875981      -0.03941109       0.07532193       0.23714744      -0.48732227
H       23.28663959       6.56248428      13.56915627      -0.14623606       0.00725660       0.16795335       0.13617711       0.12506332       0.22341251
H       24.75388835       5.82006580      14.28048462       0.11742523       0.47011663      -0.05390563       0.38125440       0.03835349       0.88288069
H       24.01234633       5.18880660      12.86824600      -0.04416393       0.06004792      -0.03497814       0.29541981       0.16206439      -0.43095699
C       11.02611060      15.89547233      11.03690101      -0.57295846      -0.89916648      -0.83759226       1.11280775       1.68256021       0.62702167
H       10.41652727      15.01194677      10.94695346      -0.33372909      -0.05706944      -0.14868438      -0.63550240       0.12137682      -0.16867541
O       10.33218089      17.00648682      11.79830363       0.12208589       0.13283655       1.64445895      -0.94449496      -2.46384740      -1.37647545
C       12.21398887      15.60181727      11.97736960       0.62364165       0.23515697      -0.03593154      -0.53837758       2.06436181      -0.63858056
C       11.21098567      17.60266030      12.56096127      -1.19252741      -0.18605448       0.46079157       2.16192102      -2.64887428      -1.36408985
H       13.09172513      15.34972919      11.38612390      -0.04317758       0.14550218      -0.07940399       0.08873190      -0.15832350       0.40239567
H       11.97144367      14.94780243      12.78155910       0.05911088       0.00741250      -0.16049748       0.05994914      -0.69839275       0.28750002
O       12.39968011      16.91375461      12.60161009       0.34967921       1.00996861       1.89443028      -0.28982267      -0.33366728      -0.32418156
O       11.05164981      18.62229617      13.07834423      -0.01085833       0.94857235      -0.10539177      -0.57703006       3.55203629       1.97865546
C       11.50792711      16.53167532       9.70676763       0.33883938       0.35225402       0.61296582      -1.16491485      -2.03057432       0.09725590
H       10.68774404      16.37939630       8.97485488      -0.04740083      -0.14164071      -0.29190342       0.77779651      -0.12282316      -0.00378313
H       12.42755448      15.95049862       9.43842523       0.06269087       0.22603968       0.00298660      -0.73046660       0.95625252      -0.35225695
H       11.57129728      17.60360553       9.78371692      -0.08636239      -0.07824974      -0.05841844       0.71127498       0.34277749       0.22698440
C       19.21691568      16.00636522      12.09726706      -0.17068175      -0.11796361      -0.44877095      -0.05761740       1.57006204       1.34272325
H       19.01459540      15.46948428      11.19808337      -0.15072905      -0.15449129       0.10737097      -0.02196631      -0.94787443      -0.38040006
O       19.54236315      15.14649829      13.21019874      -1.68078671       0.57234257       1.21365377      -1.47856688      -0.17017508      -0.13919610
C       20.50130356      16.82019363      11.94527217      -0.77967330       0.04712515      -0.04027490      -0.86984408       0.52415228       1.41906822
C       20.83425472      15.18805820      13.44563993      -0.82656168       0.29380317       0.06133229       0.60275269      -1.26343489      -1.09861851
H       20.41219811      17.80047248      12.44745954      -0.05165981      -0.04487202      -0.15730483       0.19267578      -0.36676100      -0.41253632
H       20.73874492      16.90042428      10.91909657      -0.07203690       0.14239705       0.08586483       0.72959876       0.22425678      -0.94412023
O       21.45175177      16.04294518      12.67605819      -0.27054800      -0.47022064       1.68495109       0.94763392       1.24918890      -1.05042136
O       21.43068715      14.38555639      14.09393424      -0.11216870       0.91579258       0.08437581       0.30938774      -0.51168209       1.55694056
C       18.00815727      16.86914001      12.39441287      -0.26921461       0.08223583      -0.79801195      -0.56357437      -1.06710601      -1.11518002
H       17.97727010      17.54143106      11.55500513       0.23755389       0.07456448      -0.08378506      -0.10263998       0.67302513      -0.27134299
H       17.94818859      17.42326460      13.30423296       0.01564036      -0.09093952      -0.05814687       0.55600399       0.30258459       0.75206310
H       17.09477854      16.27358050      12.29651057      -0.17567497       0.06965045      -0.05148755       0.02623026      -0.05682976       0.17794362
C       26.31166692       3.28551573       1.05462395       0.64791526      -0.17429231      -0.43924028      -0.12912659      -0.57747447      -1.76216209
H       27.37667745       3.20195459       1.18929950      -0.08494262       0.21249698       0.02198812       0.43918794       0.42525998       0.32800680
O       26.10891882       4.38230695       0.04967788       0.25756447      -0.59205505      -0.53926603       1.04078257      -0.52138674       2.24234366
C       25.84894410       2.02629892       0.24451850       0.49201465      -0.69810452      -0.45220361       0.52231759       0.05391517       0.89758837
C       25.58953089       3.89100878      28.42259061      -1.60410151      -1.37952974       0.23125763      -0.64162260      -0.46259868      -0.12343786
H       25.15940989       1.35690002       0.79177720       0.21427601      -0.02586434       0.18853997      -0.23718491       0.69046885      -0.38265687
H       26.63760109       1.36036862      29.36908902      -0.14163701      -0.28009760      -0.03930350       0.47881556       0.15359269       0.18287897
O       25.30928901       2.59680973      28.53276877       0.11182379       0.95772548       0.11466454      -0.90050751      -0.48373047      -1.06939650
O       25.34083639       4.54992604      27.45619857      -1.27524185       0.56241729       1.04901672      -0.11733948       0.02873067      -0.69288343
C       25.51961314       3.52953022       2.27890512       0.00530625      -0.38436375       0.54861390      -1.10792565       0.34305358      -0.43866554
H       25.72005495       4.48828460       2.70575646      -0.02282727      -0.02846492       0.07074528       0.37179866       0.61107522       0.44317275
H       25.71504724       2.74259303       2.97159843      -0.08892051      -0.25536266      -0.25282700       0.27224669      -0.58413088       0.75188768
H       24.44356447       3.50258405       2.05656609       0.17065872      -0.01682194      -0.11387185       0.12535724      -0.06998824      -0.10890625
C       23.68319005      14.85892379       6.20570596      -0.18565855      -0.39467626      -0.99795222      -1.55742884       0.11364613      -1.37376952
H       22.84313836      14.20317089       5.94609530      -0.23198067      -0.03372729      -0.06241293       0.31342891      -0.21312186      -0.49102050
O       24.44203926      14.17832558       7.17897874      -0.08873451       0.02466774      -0.65667887      -0.83964419       0.61032993       0.27580616
C       24.69122506      15.03959780       5.05273457      -0.61089354       0.36599633       0.53710715      -1.70451915       1.96002865       0.50796551
C       25.43065169      13.56199215       6.55251134       0.68089242      -0.19640694      -0.11876029       0.98305088       0.37309828       0.95904696
H       25.18443409      16.01319701       5.21961168      -0.15442424      -0.04368756      -0.06673289      -0.33903059      -0.38317546      -0.50315571
H       24.15987945      14.97331853       4.07504519      -0.25708209       0.07248309       0.00577214       0.82092041      -0.12811454       0.55129439
O       25.64498249      14.07209858       5.31852481      -0.42180459      -0.21799105       1.29038514       0.68712294      -1.86738515       0.02044882
O       26.08939028      12.77385569       7.14188093       0.56311688      -1.06913744      -0.53961030       0.85864151      -0.99262780      -0.51609194
C       23.02365093      16.09588513       6.70170552      -0.11959742       0.47497243      -1.01070848       0.77583891       1.08276272       3.32159853
H       22.50011161      16.70188201       5.99460021      -0.04362309      -0.43338642       0.21111380      -0.18175218       0.02138862      -0.87246042
H       23.78845542      16.75377096       7.23428903       0.08852905       0.25628677      -0.33857460      -0.72975224      -0.59538120      -0.79754621
H       22.29350376      15.85051969       7.52849461       0.05600532       0.16498354      -0.06007541       0.56473863       0.08472335      -0.92059994
C        6.66226251      23.42317413      26.22895758       0.33451428      -0.27197828      -0.25899270       0.99508595       0.01951899      -1.16364813
H        6.53880656      23.67350240      27.25308631      -0.15957605       0.12141054      -0.04021276      -0.45576534      -0.40687111       0.79746860
O        6.85096872      24.73034656      25.60379780      -0.56225739      -0.08434465       0.85740756      -0.50625676       0.36058119       0.37949046
C        8.05737706      22.78269913      25.97124845       0.20566695      -0.12561953       0.35754563      -1.24675918      -0.05329966      -0.99153876
C        7.74214518      24.63849350      24.62003525      -0.10485645       0.74298505      -0.44081562      -0.91454107       0.32455742      -0.66778874
H        7.89074303      21.71345498      25.69431232      -0.25148753       0.01768368       0.12324185       0.60590094       0.87999684       0.19062778
H        8.76444980      22.91043737      26.81844916       0.22540696      -0.05226619      -0.08915581      -0.22161372       0.15688583      -0.97287232
O        8.44307595      23.54202406      24.70067187      -0.49459556      -0.39941199      -0.40271339       0.99276477      -2.30006599       1.89285707
O        7.81840870      25.41206636      23.70670606      -0.42020556      -0.31007917       0.34799789       0.24719669       0.53404582      -0.01378817
C        5.48754153      22.76726769      25.47699078       0.28671686       0.64519340      -0.10984011       0.98709023       1.41990912      -0.10026591
H        4.59417348      23.33781015      25.69218301      -0.00746991       0.22149726      -0.07780457      -0.09794928       0.03584037       0.11485238
H        5.31252713      21.73227567      25.65781512      -0.05383122       0.22582889      -0.01570575       0.17438063      -0.85092711       0.38639858
H        5.72907809      22.90548575      24.41217077       0.36256535      -0.19825783       0.12020847      -0.18453275      -0.27103433       0.15335140
C        3.10364993       6.86134239      28.31551846       0.39147938      -0.21940790       0.30662290      -0.50294137       0.39960980       2.39036965
H        2.19215887       7.44706430      28.15376240      -0.16159161      -0.04308876       0.24472547       0.42474195       0.40833983       0.33102870
O        2.74246761       6.03564902       0.10528548      -0.37230724       0.26363945       0.51807246       0.62944049       0.61156183      -0.66803604
C        3.20787761       5.82818420      27.26973758      -0.18948911      -0.02768923      -0.04655212      -0.02343835      -1.40504920       0.17037944
C        2.47905768       4.81482718      29.21029323      -0.16862577      -0.70963231      -1.09104077      -1.97687089      -2.18752313      -1.31577992
H        4.24723040       5.74567672      27.03453416       0.20703445       0.03556749       0.13421360       0.63017780      -0.95973170      -0.37554565
H        2.65421897       6.07844983      26.40026534       0.02530076       0.13748967       0.04948003      -0.47828171       0.09529027      -0.86266714
O        2.60465076       4.59145570      27.84255515      -0.63980127      -0.81820684       1.08054663       1.17381632       1.90923524       0.81034601
O        1.98052338       3.92470916       0.43127696      -0.83635469      -0.74760611      -0.17834835       0.98626935       1.20608544      -0.11481231
C        4.36082126       7.65357115      28.70863144      -0.21383618      -1.68383161       0.39083416      -0.89728677       0.61729878      -0.60110456
H        4.23975143       7.87863044       0.32487259      -0.07214261      -0.16231333       0.12240156       0.18586747       0.13145204      -0.40705532
H        4.34762640       8.60869755      28.11652708      -0.03204256      -0.06022016      -0.09794838       0.29656821      -0.87019855       0.69285834
H        5.30573598       7.10356015      28.52899212       0.13639586      -0.12756630      -0.19250926      -0.78720260       0.25036451       0.09014638
C       10.16763522      26.43890073       2.22073153      -0.12239172      -0.30285928       0.41795650       0.33148342       1.49394691       1.76274240
H       10.52656803      26.61838943       3.29135538      -0.05198264       0.13090542      -0.07257988      -0.53010327      -0.09160634      -1.38144219
O       11.41857488      26.48434100       1.43176823       0.36405494      -0.52080208       0.06103102      -1.63401735      -1.25805807      -0.02842872
C        9.65638274      24.99403450       2.10402205       0.04865738      -0.66312349       0.47983331       1.44475937       1.78853202       0.22685143
C       11.64742418      25.20877176       1.03473430       0.03025477      -0.88483870       0.34279123      -0.87023807       1.02036643       0.86725581
H        8.87958661      24.88162695       1.41598299      -0.00445066      -0.00877042       0.16979776      -1.47875202      -0.07625724      -0.91176087
H        9.39807915      24.68879898       3.08763598       0.08172259      -0.20222906       0.10497969      -0.18918888      -0.88136321       0.66629428
O       10.77655098      24.32163776       1.57503089      -0.91620193      -0.07795598       0.60640152       0.95707220      -0.46632755      -0.19800088
O       12.49274988      24.91921384       0.26435851      -0.76338885      -0.54794447      -0.46833353       1.12359488      -0.67855161      -0.84740478
C        9.12468482       0.42072673       1.85445179       0.01278099      -0.70360614      -0.14996910       0.19365752      -0.09649212      -0.88360333
H        8.33883263       0.42182181       2.63099671      -0.07929603       0.03911933       0.01395073       0.53272194       0.07891704      -0.26578379
H        8.63081893       0.19147792       0.88640916      -0.01535341      -0.00862668      -0.11561148       0.28162956      -0.17522155       0.44961327
H        9.53492715       1.44562743       1.70893641      -0.02703699      -0.00506183      -0.02739476      -0.03838437      -0.71248895       0.61703318
C       21.13736353      10.22301845      15.01046726       0.11861346       0.19237825       0.22334738       2.06393075       0.07865623      -0.56583542
H       20.94595553       9.15593848      14.91774698       0.01990045       0.08126732       0.09441671      -0.99249804       0.04029077       0.51584882
O       21.34532021      10.60548709      16.39098255      -0.13965135       0.71652465      -0.91190413      -0.14135484      -0.50523853       0.48935166
C       22.60224931      10.27022610      14.45473947      -1.17112413      -0.16777251      -0.78599191      -0.02964669       1.26299846      -1.49275112
C       22.63739705      10.58673441      16.69944047      -0.02804398      -0.12398742       0.36016807       1.48730552       0.88278347       0.66761476
H       22.87676201      11.13336664      13.78218286       0.14429710      -0.24465590       0.12601107      -0.79979378      -0.93868887       0.31564179
H       22.91893257       9.33327358      13.98383290      -0.25298820       0.05656881       0.00429433      -0.36660746       0.17436664      -0.00724751
O       23.40170374      10.46241469      15.58443136      -0.23723213       0.40133868       0.47255579       0.28750855       0.08486870       2.17180300
O       23.11802430      10.77015690      17.81345630      -0.47426909      -0.65543618      -0.23799859      -1.01005399      -0.27326223      -1.71231866
C       20.14016435      11.14473860      14.39859087      -0.50275204       0.39934932      -0.76912822      -1.27222800       0.63850111       1.52060139
H       20.03751186      10.90838055      13.38101450       0.04865826      -0.18861640       0.09114948      -0.17031536      -0.24962853      -1.49663842
H       20.34304185      12.23595726      14.49453440       0.12946838      -0.12559141      -0.13795594       0.32027444      -0.83855945       0.06217032
H       19.14895387      10.94352101      14.87844709       0.04229640      -0.04841584      -0.01813430       0.59949905       0.16654229      -0.36955485
C        1.38849938      23.85699001      19.23233941      -0.62218424       0.34381979       0.19928394      -1.53778052      -1.00410521      -0.63793159
H        2.31640545      23.82724452      19.74295442      -0.36033786       0.10722018       0.02079195       0.91520178       0.07465707       0.91305548
O        1.36438937      25.04901866      18.46141327       0.81199680       0.53741535      -0.67233198      -0.63236940       1.83987260       0.47524291
C        1.44428405      22.85073201      18.10680667       0.44086357      -0.21137189       0.68648116       0.59629178      -0.42791986       0.86115253
C        1.88026013      24.91818922      17.24114070      -0.01290827       0.06266495       0.23864171      -0.33756164      -3.71180797       1.91703522
H        0.46877309      22.66592862      17.70756789       0.06319668      -0.00226322       0.15144124      -0.77829039      -0.49080551      -0.17896743
H        1.97981921      21.95260582      18.41050140      -0.06989053       0.09796536       0.01170309      -0.18234836      -0.04298697      -0.31722686
O        2.18755689      23.53744463      17.12429283       0.40858255       0.76461816       0.18371959       0.39253539       2.40474391      -1.75769603
O        1.99135321      25.79522974      16.46736246      -1.60777334       0.05678576       0.77851001       0.62456971       0.56840384      -1.28838897
C        0.17993206      23.75075092      20.16887899      -0.12853247       0.16960414      -0.62361155       0.53715283       0.43212509      -0.77986759
H        0.17289354      24.62434120      20.80281156      -0.13552166       0.12027737      -0.00560658      -0.36372551       0.55514824       0.02113958
H        0.37217645      22.96377155      20.85822935      -0.10501006       0.11368172       0.24196670       0.06222370      -1.06214929       0.44250339
H       27.08627210      23.57420313      19.66264109       0.28825999       0.06423452       0.09426447       0.67965680       0.25338998       0.17493786
C        6.07530429      25.29491438      15.40851022       0.25686323      -0.35861704       0.42911759       0.84698832      -0.20919569       0.65861928
H        6.71547953      24.70739992      16.07567033       0.04351740      -0.07502087       0.07379706       0.07898214      -0.26179895      -0.65254688
O        6.84272136      25.77739973      14.26705947       1.13778555       0.85142062       0.95544075       0.54181492      -0.23445223       0.49023986
C        4.97338225      24.54224170      14.74483152      -0.13633061      -0.73928169       0.19042165      -1.33376932      -0.01398980      -0.39049917
C        6.03558287      25.94091260      13.25024293       1.37886262       0.63387228       1.15738234      -1.35143924      -0.14552832      -0.29084966
H        4.02961771      24.72351604      15.28980363      -0.03102128      -0.05997496      -0.05794111       0.39225987      -0.51270211      -0.27522501
H        5.14784252      23.45594707      14.56323913      -0.29984071       0.04270565      -0.10154215      -0.03592075       0.89889097       0.00685780
O        4.83837917      25.29135440      13.48077120      -0.78258281      -0.47256608      -0.81293767       0.92157942       0.00578036       0.11424948
O        6.26678533      26.59278627      12.26676339      -0.18322089       0.37387811       0.31405578      -0.12468787      -0.40368640       0.11844753
C        5.66192004      26.47268951      16.22073825       0.33906255      -0.22803320       0.04919820      -0.72023934       1.95039511      -0.97456950
H        5.34579801      26.16625238      17.19678533      -0.06453614       0.29364829       0.03085734      -0.12474018      -0.12005574       0.65833205
H        4.83144971       0.00697680      15.76903457      -0.13700008      -0.04155552      -0.07256293       0.68618524      -0.91297507       0.29314426
H        6.52608731       0.05155657      16.25663894      -0.16526656      -0.03437267       0.00856716      -0.09034543      -0.14236765       0.44784489
C        9.01302157      26.24414196      20.13821792      -0.99905141       0.01362687       0.13043034       0.49696946       1.39148617      -0.02235376
H        8.85297630      26.01213390      21.16207769       0.16416754       0.20123390       0.36943437      -0.33127177       0.04463539       1.03475189
O        9.61875826      25.10394258      19.57756098      -1.48314830      -0.14611861      -0.68522300       0.42912230      -0.27518940       1.37014318
C        7.74806604      26.45690370      19.32553348       0.23716182       0.54905715       0.13853523       0.93535686      -0.42836881      -2.20411444
C        9.11548798      24.90030324      18.39501849      -0.29105244       0.59311116      -0.07540258       0.64916283      -0.95808691      -0.91347045
H        7.71567442       0.36202031      18.89493691      -0.02566819      -0.13682691       0.15587436      -0.39406690       0.04646068       0.53733218
H        6.81115828      26.07415218      19.67878659       0.02793971      -0.31323462      -0.01208403      -0.45796207      -0.15341519       0.36976683