2148
Lattice="27.43372094869106 0.0 0.0 0.0 29.18875573326094 0.0 0.0 0.0 27.654473871950323" Properties=species:S:1:pos:R:3:momenta:R:3:forces:R:3 Origin="-14.50895 -14.50895 -14.50895" charge=0 spin=1 energy=-1763720.081696297 stress="0.0015575812431052327 0.0006601835484616458 0.0002373304305365309 0.0006601835484616458 0.005018213298171759 -0.0007412960403598845 0.0002373304305365309 -0.0007412960403598845 0.003719387808814645" free_energy=-1763720.081696297 pbc="T T T"
C       25.37321991      14.49017791      13.25012472       0.05391295      -0.41995344       0.68960449      -2.66325212       1.62508035      -1.17808735
H       25.22140658      15.24125638      12.36950580       0.09337835      -0.19224359      -0.01148363       0.03618015      -1.28954256       1.40008080
O       24.37843831      13.38561010      13.04779431       0.29005746      -1.63670010      -0.04540713      -0.09260873       1.19274437       0.11953224
C       26.63108257      13.77136383      13.04108011      -0.66800729      -0.67111728      -0.13787496       1.58934236      -0.06142224       0.65998161
C       24.94205159      12.48830948      12.25304121      -0.87754484      -0.51043230       0.56277915      -0.30707315      -1.47525823       0.90630901
H       26.95394068      13.19443108      13.95009933      -0.23542332      -0.02459335       0.09873297      -0.04338627       0.76117516      -0.62560314
H       27.41339417      14.51543403      12.67124964      -0.12436961      -0.06912316      -0.08012653      -0.72343737      -1.45188129       0.19640082
O       26.22928547      12.78846907      12.08627990       0.24801570      -0.71481912       0.94351727       1.29383814      -0.41478592      -1.29545867
O       24.41523356      11.46512516      11.86167820       0.23062253      -0.07641591       0.50707292       0.57850790       1.24734712      -0.05938104
C       25.18523187      15.18238834      14.57270504      -0.21028126      -0.90061886       0.13965513      -0.37916896      -0.63843238       0.65013927
H       25.39633930      14.43301588      15.39683025      -0.17218470      -0.01441923      -0.04600497      -0.30945301       1.04800928      -0.69503522
H       24.22172222      15.73654065      14.74655145      -0.08486723      -0.34532340       0.07087563       0.83001924      -1.01212966      -0.30675638
H       25.93174313      15.96228981      14.55813970       0.07170320      -0.05562125       0.29204385       0.47557977       0.24747756       0.39731622
C       18.98260201      21.10182931      17.34108574      -0.23531569       0.05356078      -0.75472453       0.45984435      -0.51633489      -1.02263343
H       19.79055436      20.37463008      17.60717875       0.17266245       0.24075229      -0.28164814      -0.56077474       0.64603978      -0.19191945
O       18.04736765      21.12643156      18.47322628      -0.20979689       0.25460136      -0.89614047       0.58231562       0.33896476      -0.68709886
C       19.49800921      22.55640361      17.35232913      -0.79079300       1.08321706       0.02971874      -0.79220730      -1.35902858      -1.62131190
C       18.45493510      22.13415943      19.26399368      -0.91871576       0.50306530      -0.34328944      -1.81814396      -1.27132750       0.89067131
H       18.78461803      23.22584055      16.84363809      -0.26655838       0.05936816       0.24831707      -0.06599096      -0.22767013       0.19510184
H       20.46887355      22.74780641      16.88244490       0.17975749       0.17138009      -0.09825695      -0.00007435      -0.45685235       0.59766024
O       19.46237022      22.78061820      18.72947847      -0.41763677       0.44169149      -0.50540611       1.39121079       1.68569410       1.20800507
O       17.92880914      22.37180358      20.31695036       0.26063737      -0.41278689       0.14409955       0.43661711       0.27047077      -0.00735339
C       18.29618486      20.68947747      16.04042179      -0.40610787      -0.11097762      -0.30461976       1.21163332       1.00203109      -0.64517140
H       19.00651372      20.93570213      15.17417864       0.05331555       0.18604182      -0.15747874      -0.69813788      -0.49337825       1.16684186
H       17.42594792      21.33141510      15.85180777      -0.11927269      -0.08445293       0.07470709      -0.09950975      -0.46299279       0.20874752
H       18.10880821      19.62069387      16.04988659      -0.14860923       0.02709612      -0.39043831      -0.35720190      -0.02067686      -0.13463064
C       21.25147455      11.68450074      12.17379121       0.08077314       0.39731269      -0.50688995       0.21267922      -0.48349383       1.75866485
H       22.03318341      12.44916085      12.10161395       0.18565499       0.13195666      -0.20588913      -0.48642248       0.17223138       0.19287300
O       19.99240285      12.18872842      11.70426621      -0.14025381       0.42672991      -0.39385356      -0.31507331       0.33481109      -0.22688805
C       21.57960820      10.55984256      11.19557946       0.42064430      -0.59382014       0.66808688       0.07662451      -0.82106298       0.70887423
C       19.71110538      11.68978930      10.50899288       0.06705418       0.69036348      -0.47511676       0.69050896      -0.17821898      -0.55064332
H       21.31043372       9.60151561      11.67193901      -0.00860135       0.13630325      -0.32761848       0.65103513       0.10747389      -0.14654230
H       22.59044716      10.57613033      10.73860769      -0.12354489       0.08915472      -0.03232143      -0.80729836       0.02793296       0.49401844
O       20.61192876      10.73260267      10.19108839      -1.44358868       1.04551065       0.66238275      -1.30152631       0.53586686      -1.68166649
O       18.82031735      12.06573029       9.78238002       0.97413088       0.00478662       0.34035354       0.34930018      -0.69592464       0.73149663
C       21.01782274      11.20269671      13.64284999      -0.39676675       0.13492469      -0.30615910      -1.19443774       0.23597486      -0.81176895
H       20.45213893      10.24804549      13.68623402       0.12861550      -0.11025579       0.19501169       0.39716613       0.63104421      -0.33836982
H       20.39255679      11.91656827      14.23536246       0.07983671       0.11744921      -0.17422788       0.75089961      -0.24263403      -0.58922231
H       21.95682456      11.04370595      14.11173900      -0.03742390      -0.10874560      -0.08669490       0.94702488       0.00064754       0.57724863
C        4.63836083      14.37588098      23.98730181      -0.66123683      -0.45938755      -0.51753770       0.51878864      -0.15411483       2.09388304
H        5.65161628      13.98706210      23.88226600      -0.22455902      -0.03566847      -0.19509633      -0.06312418       0.02386840       0.06244006
O        4.67769423      15.33810453      25.16538674      -0.17963690       1.01759819       0.06554339       0.08714344      -0.53194296      -1.61893499
C        4.21449700      15.27024082      22.86402059       0.64768647      -0.38817580       0.07253534      -0.83929002      -0.02928684      -0.48815528
C        4.25473869      16.53498643      24.75016941      -0.15146412      -0.97536595       0.08407657      -0.10381418      -0.32982531       0.81236929
H        3.26593864      14.86787472      22.54982291       0.13241411       0.10070947       0.10458899      -0.42700532       0.26115400      -0.60545617
H        4.85905660      15.39576682      22.00760196      -0.25569890      -0.01271909       0.04572571       0.42528963      -0.19677770      -0.01059035
O        3.98683097      16.57018356      23.42154726      -0.70340266      -0.80735286      -0.71141468       0.19587104       0.39212039       1.67340779
O        4.11469228      17.42749176      25.56400966      -0.22865002      -0.29867345      -0.52829868      -0.10016846      -0.09275398      -1.35933638
C        3.62453231      13.29989576      24.36658133       0.62241258      -1.21044373      -0.13085426      -0.38141918      -0.77060837      -0.90647662
H        3.97468778      12.54555943      25.07039229       0.01174806      -0.09444160       0.19972749       0.37158439       0.42153031       0.21133436
H        3.32017801      12.66082319      23.48365994      -0.08446852      -0.09883577      -0.19114713       0.28161624       0.96372658       0.61501271
H        2.73028802      13.77464634      24.79816974       0.22172963      -0.22455252      -0.25748328       0.11492942      -0.08782847      -0.27530390
C        3.58824749      11.41628798       5.22304850      -1.05631628      -0.49880845      -0.79079820      -0.38460919      -0.45141682      -0.55259508
H        3.05258079      10.98591990       6.05942671      -0.13644605       0.02084399      -0.01129176       0.25556076      -0.57135475       0.10841785
O        2.96420344      10.86762993       3.98827764       0.86640420       0.70646485       0.98532388       0.56629199       0.89533645       0.13743265
C        3.23122448      12.87563181       5.16569526      -0.89950506       0.08255925      -0.13625013      -1.28401887      -0.76475888      -0.64037865
C        2.83868364      11.89443013       3.08557518       0.33646722       0.46490654      -0.70783146       0.24330987      -0.93507868       3.08901620
H        4.04486720      13.43379837       5.55493588       0.05149096      -0.07477548      -0.02386679       0.62965369       0.97469765      -0.03541239
H        2.29849201      13.12247343       5.70747206       0.13163524      -0.15608056      -0.08654198       0.41658512      -0.11283728      -0.37457073
O        3.02182207      13.05977759       3.74632673       0.66586423       0.58155740       0.14813811       0.23911749       1.17012548      -0.27953139
O        2.57854856      11.76907643       1.94833963      -0.98727525       1.46355996      -1.21274006      -0.34970403       0.14294899      -1.41046226
C        5.08194301      11.13297844       5.21914095      -0.00718979      -0.67330305       0.80865296      -1.59780574      -1.16864085      -1.00246227
H        5.18234059      10.09382404       4.96261131      -0.07960261       0.07913784       0.18322253       0.13612866      -0.69125289      -0.24097559
H        5.47429907      11.20151394       6.17721727       0.20796120      -0.16676966       0.08633638       0.81500208       0.60085350       1.89233911
H        5.67080627      11.65772256       4.50088226       0.20228568       0.23507376      -0.15349895       0.20229177       0.79220712      -0.45703420
C        7.05678455      21.37716767      11.62310603      -0.07565981       0.22424228      -0.94652192       1.24032652       0.40795222      -0.90726125
H        8.08659830      21.20580712      11.25309127      -0.25612981       0.09407517      -0.00773066      -0.28502956       0.04610572       0.52928758
O        6.23698942      20.92870938      10.54779150      -0.42028208      -0.50254837      -1.30989569      -0.40037811      -0.37552729      -0.38547352
C        6.64567845      20.48829340      12.75790355      -1.03331309       1.23641213       0.48301972      -0.56738859       0.16271661       0.96298689
C        5.21143623      20.22151062      11.03361304      -0.76064092      -0.69062698       0.87446427       0.47241616      -0.11815076       0.04843863
H        6.60130768      21.11087639      13.68086217       0.00355177       0.11361808      -0.45314471       0.03766516      -0.89612484      -0.32789752
H        7.19624484      19.54288964      12.84092340      -0.00456632       0.06851222      -0.04652523       0.17139249       0.40849179       0.20575227
O        5.29528748      20.10115616      12.37613873       0.70321078      -0.03046030      -0.95838508       0.11121725       0.19071688      -0.20473811
O        4.38144349      19.73089603      10.33788492       0.19524519      -0.27240948      -0.19922999      -0.90333366      -0.16622041      -0.08375367
C        6.81230945      22.84721449      11.78938248      -0.34046851      -0.37987868      -0.60236015      -1.14182162       0.52018124       0.91370952
H        7.53970839      23.37004209      12.40383031      -0.13122707       0.25950606      -0.04809258       0.10481021      -0.16656628       0.10077905
H        5.79403562      23.11045348      12.17182260       0.04949441      -0.28055757       0.16426616       0.68350738      -0.56630415       0.11462592
H        6.77804217      23.27324600      10.81679053      -0.11896396       0.14446489      -0.17598531       0.36141935       0.48487908      -1.02131057
C        0.05045825       0.07748213       1.33711373      -0.76665123      -0.00187178      -0.35790271      -0.36617228       0.43347439       0.48660764
H       27.24609883      28.28837676       1.01960843      -0.52736239      -0.28989413       0.29578898      -0.43473172      -1.41217709      -0.11598588
O        1.32290736       0.02668924       1.96732022      -0.70383297       0.23998923      -1.09762269       1.61495435       0.08439147       1.36759603
C        0.38204910       0.82906899       0.11789305       0.02431450       0.26088827       0.21864856       1.01638639       0.78481674      -0.02503496
C        2.30315321       0.19202497       1.05468051       1.17198065       0.06088660      -0.41277953      -0.36309239      -0.71289998      -0.66577351
H        0.48807731       1.88110098       0.18674388      -0.15772021       0.06899755       0.15474572      -0.54110765       1.31216979       0.56470275
H       27.17726168       0.60664026      26.98578554      -0.16974255      -0.05897014       0.04255453      -0.94816685      -0.65344310      -1.68521082
O        1.73091842       0.41405641      27.52262039      -0.69460208       0.02723291       0.65387868       0.45506987      -0.14776455      -0.63416332
O        3.48620236       0.06420698       1.20986356       0.95963361      -0.77487026       0.36848664      -0.45120937       0.09470265       0.59315431
C       26.45512784       0.64790461       2.25812513       0.38495290       0.27731941      -0.29562440       1.06974697       1.48553860       1.55618095
H       26.78403095       1.71410748       2.53156319       0.00909869       0.04842673      -0.14406844      -0.36274821      -1.45976985      -0.09366045
H       26.34601263       0.02150040       3.19261543       0.02446118      -0.41241008       0.11724868      -0.04932903       0.69461995      -1.06062174
H       25.52880849       0.77413713       1.74073384      -0.01751333      -0.20472923       0.01878642      -0.77774966      -0.30479631      -0.25412178
C       21.69808650       9.01830134       0.73154235       0.02074868       0.72463907      -0.01250793       0.62006485      -1.33186901       2.19584155
H       21.25508939       8.39971079       1.52744078       0.00888985      -0.00180901      -0.12551130      -0.20975070       0.23604965      -0.39537406
O       22.86695394       8.28723235       0.32726166      -0.38926241       0.07264790      -0.61924465      -0.22356848       0.06566753      -0.69356281
C       20.88145949       9.04504136      27.15418288       0.92553890      -0.11989026      -0.54019300      -1.53614569       1.38552606      -0.92955697
C       22.84390467       8.16023245      26.63616219      -0.03348103      -0.10643624       0.02166369       2.44969559      -0.60213321      -0.22211707
H       20.43928049      10.06481595      26.98165790       0.06429715      -0.10756198       0.12410320       0.46004632      -0.93997991      -0.12219161
H       20.08133736       8.32638640      27.23707047      -0.07016474      -0.10268706       0.33090583      -0.30016980      -0.26786554      -0.40264070
O       21.76508902       8.68692443      26.06964807       0.05794235      -0.01781067      -0.19137769      -0.37882969       0.06657688       0.75617266
O       23.77685121       7.65173669      26.05546147      -0.60558469       0.06470787       0.47737741      -1.05987191       0.20150852       0.06494633
C       22.03232466      10.33577737       1.31520074      -1.08907969       0.17863439       0.36380397       1.00844729       1.38935816       0.57003230
H       22.64752190      10.33404959       2.27460805      -0.05176874      -0.14542935       0.02226624      -0.86998570      -0.39906722      -1.23925698
H       21.05710207      10.81339348       1.52366612      -0.20837787      -0.31134601       0.00558766       0.70741063       0.08052447      -0.14321539
H       22.62149016      10.88923586       0.55059437      -0.01564032      -0.27694756      -0.11623025      -0.45549718       0.12799637       0.43494201
C       11.16800202      24.33928995       1.61676127      -0.29589817      -0.40337825      -0.08869466      -1.02015269       0.50295079      -0.62858981
H       11.73129164      24.51401677       0.68771724      -0.23317124       0.00174967      -0.18376748      -0.19638115       0.11852991       0.17780681
O       11.10263275      25.61681814       2.32617123       0.65653846      -0.27418106       0.02595293       0.77411354      -0.29228759      -0.24267015
C        9.64415996      24.14734741       1.29680649       0.21307840       0.15700753       1.26368935       0.79042548       1.53314555       0.14316235
C       10.10385940      26.36215299       1.83409715       0.32134024      -0.16249047       0.80638390      -1.19351959      -2.00784159      -0.06673925
H        9.11408925      23.65936690       2.12342028      -0.30725838      -0.06192600       0.18120224       0.02370432      -0.14813095      -0.42559934
H        9.49524999      23.76371147       0.28843512      -0.01600037       0.27668527      -0.02290580      -0.24246235      -0.37363130       0.26120090
O        9.14589197      25.54859825       1.24765181       0.17823063       0.61119988      -0.34713267       1.60655999      -0.16436008       0.39959261
O       10.00868028      27.52948659       1.97205888       0.06281969      -0.98770055       0.59629836      -0.31543636       1.11335146       0.10165589
C       11.84336387      23.29159763       2.46316500       0.75763706      -0.83536087       1.03252892      -0.84888148       0.01645018      -0.77567041
H       12.87491950      23.61803177       2.64202374      -0.12414975      -0.26659196      -0.18003640      -0.39721921       0.00305115       0.81960553
H       11.98286843      22.40005349       1.82744452       0.11203325      -0.12486985      -0.21784890      -0.41124615       0.04013601       0.31040895
H       11.11775292      23.11120470       3.28889808      -0.13853778       0.06951963      -0.09398256       1.32165027      -0.20198359       0.03635999
C       25.49998809      21.21449799       7.20877339      -0.87190483      -0.85772973      -0.21418373      -1.20303965       2.05762291       0.90151483
H       26.12336946      21.38916795       6.34288382      -0.17413691      -0.26208770       0.23632570      -0.43160236       0.09221839      -0.33916268
O       24.22428450      22.15439979       7.12279358       0.59448244      -0.15012485       0.71187922       1.81778479      -0.88860983      -0.17178874
C       24.84373990      19.88346867       7.34653140      -0.20044580       0.29725256      -0.28474234      -0.77963984      -2.07114959       0.22043391
C       23.15013609      21.44521743       7.42014389      -0.00208676      -0.12143740      -0.01812591       0.58250672      -0.88302267       0.16421804
H       25.23534151      19.34185892       8.24720273      -0.12096093      -0.01231249      -0.09709856      -0.47215495       0.40086344      -0.84130126
H       24.88509202      19.19239370       6.48199184       0.09246787      -0.18465719       0.07449636       0.36353669       0.54990298       0.33942503
O       23.42272867      20.12583332       7.55249466       0.51916023       0.19630734      -0.56320084       0.60204333       0.48655125      -0.01417486
O       22.04955266      21.87057206       7.62871703       0.97293981       0.55778638      -0.49024670      -0.45688978       0.54359829      -0.30314484
C       26.23230996      21.64567334       8.46287434      -0.12596659       0.16472590       1.25876287      -0.03666852       1.11391091      -0.50778937
H       27.20973112      21.23565971       8.50871392      -0.16778872       0.12348381      -0.22828636       1.00970745      -0.63725275      -0.40082082
H       25.75599154      21.27894951       9.35467279      -0.23023260      -0.14851073       0.09493004      -0.58518708       0.28132799       0.53160828
H       26.46773033      22.73071212       8.47964977      -0.21518098       0.23115924       0.00375851      -0.67941213      -0.58772773       0.12277611
C        8.37043741       4.86479673      26.96082011      -0.02526529       0.38512271      -0.05780125      -0.68426603      -0.89106625       1.84930193
H        7.87916123       4.21234072       0.08139934      -0.08513317      -0.11122294      -0.06646577       0.08517022       0.55110395      -0.63481623
O        7.55358288       6.06242291      26.84729411      -0.39655682       1.62488899      -0.89861715       0.38006368       0.21485820       1.05782604
C        9.66572034       5.36146379      27.55565014      -0.33377712      -0.08951885      -0.79193312       0.24063112       0.45276117       0.05516573
C        8.00205137       6.94353983       0.12872880       0.39836444       0.05415278      -0.52410035       2.04242229      -1.79533756      -2.08952641
H       10.35903555       5.60351346      26.75927065       0.03776262       0.22164642      -0.22498148       0.22613545       0.40487275      -0.05767612
H       10.21626900       4.74485176       0.63855187       0.04668567       0.04721071      -0.19832662      -0.72790962       0.15044409      -0.41054177
O        9.22765719       6.56387179       0.56676400       0.76432192       0.09356262      -0.46069172      -0.60561478       0.48236257       0.59319144
O        7.47679252       7.97171501       0.35769091       0.76895635       0.54770066       0.95863215      -1.02787125       1.45881343       0.94048899
C        8.39690918       4.17399953      25.66319339       1.35653110      -1.14550503      -0.06028311       1.29680955      -0.89058042       0.09691846
H        9.29915292       4.36126042      25.07722212       0.09391539       0.07275386       0.17977789      -0.15274848       0.31276178      -0.09220129
H        7.50831600       4.44868011      25.17038858       0.00514415      -0.01323594       0.07855803      -0.94152963      -0.01819737      -1.00583422
H        8.39247991       3.10973245      25.86615626       0.02345719       0.01474736      -0.07204046      -0.18686023      -0.32158211      -0.24776404
C       17.67262468      22.36534920       2.07371874      -0.74142498      -0.57488143      -0.52240982       0.04332240       0.88377118       1.76967859
H       18.09493238      21.57288715       2.70378000       0.10201726      -0.05252534      -0.05845626      -0.60201234       0.07890794      -0.35391772
O       18.55640038      23.51127033       2.37514154      -0.14590891       0.17774813       0.40074184       0.15950404       0.04983375       0.37690660
C       17.87453828      22.17224114       0.59926408       1.05175592       0.53955375       0.21297183       1.57796884      -1.56081772       0.71116829
C       19.27920407      23.81992887       1.30971394       0.45970028      -0.43758458      -0.32346419      -0.97621900       0.65941632      -0.34243178
H       17.03699019      22.50029995       0.05993106      -0.11313992       0.17915886      -0.13511721      -1.17259598       0.09823736      -1.03527248
H       18.21509521      21.14124244       0.37809278      -0.13651462      -0.01905909      -0.02287136      -0.55100882       0.56691730      -0.19885613
O       18.93882915      23.03698552       0.30140072       0.16966272       0.45384736       0.49770741       1.35460436       0.34995091      -1.43889225
O       20.02315625      24.76654255       1.20021545       0.86887725      -0.37553030       0.27852270       0.22300468      -0.67059755       0.16690971
C       16.25214506      22.82662108       2.38933259      -0.24061954      -0.14239955      -0.19646999      -0.01872667      -0.33316481       2.56676579
H       15.62669485      22.54399900       1.59174277      -0.18025008      -0.17204513       0.15059451      -1.01608360       0.01393272      -1.06294417
H       16.21341438      23.89858340       2.60210593      -0.14217480       0.09035580      -0.10923673       0.15139666       0.03762278      -0.66374564
H       15.77479498      22.40176032       3.31588166       0.31445325      -0.14236969      -0.23356345       0.82883513      -0.07090460      -0.75425714
C       24.58189178      25.32985366       7.79961649       0.28477060       0.52303274       0.49121172       0.47749183       0.33800000       0.28221112
H       25.34706730      24.60119545       7.42348183      -0.05050721       0.08725708      -0.04326763      -0.64734370       0.81703949       0.24299817
O       25.08869022      26.70577828       7.56921682       0.30949633      -0.36035997       0.12121803       0.54387873      -0.71070832       0.68562102
C       23.29541389      25.33476489       6.94244750      -0.22346684      -0.76400812       0.37766059      -0.26683402      -0.12184326       0.12145342
C       24.33324117      27.38154221       6.75580627       0.01974508       0.58575695       1.44583897      -1.42721760       1.14288652      -1.79583681
H       22.37650024      25.34418978       7.55944250       0.14387747       0.10333580       0.30385613       0.47921845       0.08874492      -0.18321094
H       23.24389603      24.48110038       6.25962510      -0.03312595       0.33130231       0.14280969       0.16866019       0.27907541       0.04980247
O       23.34880428      26.57638217       6.18464033       0.98162026      -0.77452929       0.07418007       1.30906403       0.75266433       1.03541780
O       24.50408819      28.56669636       6.46670425       0.25724720      -0.18254352      -0.66742332      -0.38637349      -2.09478760       0.34318149
C       24.33302664      25.17559169       9.29820789       0.01606480      -0.42674053      -0.52068397      -1.96364224      -0.05778411      -1.64768827
H       25.14499495      25.30193359       9.95007053      -0.32096630      -0.23356284      -0.35708252       1.50282335       0.38557899       0.49103215
H       24.05236716      24.13436721       9.39329879      -0.02988991       0.25724335      -0.08756306      -0.45537665      -0.30176991       0.39204451
H       23.48276437      25.84109734       9.58523993      -0.05293935       0.17196204      -0.04097306       0.61904401      -0.69125235      -0.29058990
C       16.41725416       2.83226244      14.16049685       0.60397946       0.57825109      -0.08661343       0.12828362       0.30332533       1.33442354
H       16.52762898       2.96092364      13.08401010       0.07776383       0.09813981      -0.15780251       0.26571813      -0.70541942      -0.04384735
O       15.05702762       3.22820866      14.44477032      -0.35097015      -1.12396075      -0.69178574      -0.93336231      -1.87535298       0.34781250
C       16.49098874       1.42058609      14.85928525       0.67634979      -0.44200220       0.48333611       0.00143002       0.65045285      -0.42130053
C       14.37147108       2.08938782      14.78901891       0.41013361       0.70775570      -0.54736097      -3.33201718       2.13209295      -0.40855071
H       16.90636448       1.56473160      15.86000403      -0.38336188       0.34733678      -0.34122671       0.12699132      -0.22156072      -0.43117923
H       16.95963892       0.58779138      14.34254353      -0.15919994       0.08569431      -0.12110405       0.26029810       0.28839257      -0.14304787
O       15.10350841       1.06009490      15.02897127      -0.55824392      -1.05078579       0.11233259       1.56417072      -1.04301298       0.02323751
O       13.15207312       2.03303565      14.86882450       1.04899073      -0.59727871      -0.24568955       1.25670946       0.56972814      -0.25753999
C       17.32665429       3.80755182      14.87310907      -0.50026879       0.18969228       0.60753453       0.64475352      -1.08599365       0.68743551
H       17.16915560       3.87248143      15.98381154       0.30369981       0.17563256       0.30562616      -0.13154447      -0.14575264      -1.00734270
H       17.30347077       4.76167800      14.41614173       0.14521681      -0.03384784       0.11946309      -0.21979772       1.08691680      -0.33357409
H       18.33121201       3.42515698      14.70013668       0.13184180      -0.10106468      -0.06671715       0.22870578       0.12581591       0.12364611
C        6.19488410      22.67001212      17.08365978       0.15293603       0.26680070       1.14411091       0.02390683      -0.53398657      -0.98966819
H        5.33354066      21.99458256      17.34846836       0.16541230      -0.10237450       0.35209901       0.81181371       0.88846523       0.29811081
O        5.97915721      22.95322126      15.64282554       0.09525444       0.62546464       0.91914028      -1.07932174       0.94090939      -0.75522727
C        6.11295622      24.10385186      17.54295424       0.51750350      -0.47922457      -0.80064895      -0.04590201      -0.47536600       3.59589076
C        5.14662245      24.05079455      15.56613409       0.33397769      -0.50332313       0.22849778       0.23006393      -1.47999012       2.23021340
H        7.06562894      24.63178770      17.32122909       0.01098111       0.05238724       0.05568967      -0.72770679      -0.27008173       0.10805570
H        5.87033030      24.14991596      18.67435676      -0.00929933       0.27530295       0.17914457       0.32103670       0.12051988      -1.90306246