2178
Lattice="25.599995200968767 0.0 0.0 0.0 28.12175150469691 0.0 0.0 0.0 27.810861151707147" Properties=species:S:1:pos:R:3:momenta:R:3:forces:R:3 Origin="-13.979 -13.979 -13.979" charge=0 spin=1 energy=-1243468.486886873 stress="0.0029685399495065212 -0.0003192088915966451 0.0013432318810373545 -0.0003192088915966451 0.0007698506815358996 0.00053352554095909 0.0013432318810373545 0.00053352554095909 -3.4717791095317807e-06" free_energy=-1243468.486886873 pbc="T T T"
H       14.47760495      20.58480098       4.07416789      -0.00767812       0.14869715      -0.00077332      -0.30131707      -0.18640952       0.63694865
C       14.36244243      20.45749050       5.17270340      -0.22953148      -0.01166317       0.14838158       0.38292956       0.76143265       0.91646653
O       14.83831985      21.65205101       5.86586570      -0.63882355       0.48742826      -0.46996596       1.54257524      -2.71769881      -0.61112416
H       13.29775372      20.36782977       5.48439255      -0.00314488       0.09868657       0.15295634       0.54091412      -0.54618400      -0.52674055
H       15.00216507      19.61550370       5.54583572       0.04317658       0.42883871      -0.04242146      -0.74411803       0.64433908      -0.44777608
C       14.01776034      22.71342601       5.69697031       0.72419395       0.07083411      -2.17767324      -1.55803299       1.00704527      -0.05495381
C       14.35152526      23.76453524       6.70970206      -0.48722698      -0.03008745       0.25422267      -0.43979210       0.84693897       0.05449278
H       12.99923269      22.45739747       5.98166117       0.07794064       0.23184874       0.17371714      -0.65118778      -0.38493618      -0.32892707
H       13.98389955      23.05872282       4.64449887      -0.14778806       0.09264405      -0.32826986       0.20321840       0.25410733       0.33477911
O       13.64468275      23.68525875       7.94565420       0.20231124       0.08624678       0.41323921       0.18801139      -1.11355567      -0.33029070
H       14.00334083      24.71531801       6.34707159       0.06681072       0.16297420      -0.07365588       0.52471161       0.56972194      -0.48776719
H       15.39101938      23.71430431       6.94529126       0.07617548       0.06585916       0.02512790       0.99902880       0.31107745      -0.25938621
C       13.70281095      22.38286535       8.50342007       0.34892142      -0.29778070       0.22886776      -0.30091548      -1.25159633       0.85306209
C       14.35451289      22.42002354       9.89336145       0.28723548       0.48851191       0.05540625       0.80569923       0.26228285      -1.04619968
H       14.15872357      21.55057466       7.90050006       0.01797420       0.19268499      -0.10920119       0.08512413       1.37164867       0.19895975
H       12.65729549      22.05423977       8.58181984      -0.08823716      -0.20343344       0.11395935       0.04458298      -0.07274936       0.45308676
O       13.49686306      23.20021780      10.69099963      -1.19345197      -1.01244728      -0.56913878       0.20856766      -0.05786759       0.17922817
H       14.53487813      21.39403571      10.27465426       0.14855860      -0.05043817      -0.28172179      -0.45491931       0.29826233       0.13332178
H       15.41553642      22.85074740       9.79029838      -0.14933897       0.02295176       0.10266752      -1.39674902      -0.12905365       0.30333164
C       13.76236301      23.12986073      12.07969458      -0.33472761      -0.01735701       0.52101355       1.88918185      -1.66034842      -1.05338097
H       13.70705360      22.06101369      12.39601351       0.17531126       0.09461492       0.27845789       0.12437156       0.60587460       0.11892419
H       13.02943447      23.68852817      12.55149051       0.13659979       0.23257502       0.02574294      -1.46980464       1.13004863       1.08447242
H       14.77182632      23.52244691      12.31473787      -0.29553598       0.10383298       0.02078295      -0.37924954      -0.21351023      -0.00321976
H        5.12414665      15.21852286       0.66857107      -0.03710415      -0.05196179      -0.08501776      -0.38164616      -0.38785145      -0.19399543
C        6.18974942      15.36447242       0.65504991       0.03432616       0.17143420      -0.13192383       2.47072148       1.14954710       1.03149617
O        6.49469997      16.75767034       0.99033103      -0.37589311       0.65094118       0.06413343       0.57630438       0.02609034       0.74550098
H        6.76551399      14.68862543       1.39298445       0.10949921       0.07484014      -0.15683037      -1.25619638       1.03336596      -1.01237833
H        6.67892496      15.31343255      27.50245233       0.21806399      -0.06671686      -0.10375420      -0.53553486      -1.06497252      -0.40929106
C        6.70400617      17.62391099      27.68478654      -0.35496166      -0.07522260       0.34093032       0.79572535      -0.76737297      -0.48255053
C        7.70199047      18.76227798       0.15023417      -0.56600755       0.06802763      -0.15201800      -0.01613970      -0.79061264       0.76902437
H        5.75113362      17.97676102      27.43350639       0.07585929      -0.03122427       0.04747027      -1.53327894       1.11666751      -0.64789104
H        7.02756509      17.05408869      26.80170365      -0.22187897      -0.30029980       0.03236189       0.20737357       0.07842138       0.22226083
O        8.04690306      19.54430880      26.82127914       0.04972288       1.33628013      -0.63394466      -1.77622247      -1.66665184       0.23945606
H        8.61340018      18.32250808       0.53532105       0.18959877      -0.16884803      -0.05049088       0.40659261      -0.36480299       0.09887975
H        7.32131842      19.35110075       0.99304071       0.18598383       0.07514121      -0.02097599      -0.20387535       0.46756062      -0.22485583
C        8.95516046      20.52477673      27.11783808      -0.74230172      -0.01589543       0.21792430       1.31880534       1.55898166       0.46264860
C       10.27272569      20.31073375      26.34167557      -0.75170060      -0.67316528      -0.43611657      -1.05625188      -0.88486671       0.71680635
H        9.25092346      20.55885028       0.37614138      -0.03331622       0.10477342      -0.07962260       0.02878750      -0.62537819      -0.27553335
H        8.47774788      21.50003230      27.03805655       0.10644223      -0.03803807      -0.02262226       0.31796810       0.05814324      -0.68080807
O       10.76944261      19.11271029      26.91981584       0.91346027      -0.82558398      -0.86511563       0.90912437      -0.97510689      -0.36762115
H       10.20432913      20.11424053      25.27298589      -0.03812375       0.08189775      -0.26743658      -0.52846622       0.62939131      -0.19287561
H       10.92986478      21.12745248      26.57655508      -0.35470067      -0.13695878       0.02142192       0.57777756       0.57795888      -0.16308853
C       11.18975152      18.06294477      26.01228283       0.04358702       0.97185802      -0.89546607       0.47969109       0.66354132       2.71013141
H       12.05977106      18.31927954      25.43383202       0.22383217       0.09850081      -0.06482327       0.47361702       0.26894811      -0.34339088
H       10.40335750      17.72756036      25.40396387       0.09837612       0.01898647       0.00426511      -1.30317760      -0.31729424      -1.03407848
H       11.44823443      17.25382047      26.71564843       0.02797859      -0.23380910      -0.00068225       0.05821767       0.09444368      -0.47840351
H        5.83295489      20.02299231       5.29673707       0.01153454       0.03256248       0.15485124       0.21668202      -0.85803962       1.19393396
C        6.42941397      19.12088351       5.66068932      -0.31984944       0.40856560       0.63034271      -1.10261536       0.62570703      -0.35016209
O        5.70677229      17.91117049       5.43665256      -0.81324900       0.50094959       0.88386314       0.13760683      -0.16874354       1.09634697
H        7.27525535      19.19427911       5.00467953       0.05768666      -0.22015243       0.04494625       1.01062095      -0.42254078      -0.34924197
H        6.77345002      19.14866113       6.73376995      -0.14107623      -0.03365755       0.30215439      -0.71248055       0.11100291      -1.11893952
C        5.12101413      17.75393492       4.18915546      -0.37589628       0.27621375       0.98868414      -0.05127405      -0.56285775      -1.20898485
C        4.55560666      16.32106982       3.88293550      -0.64235671      -0.62845222       0.52589534       0.64899325       0.91468239       1.88277745
H        5.86475863      17.95617328       3.40992771      -0.10393992       0.08799176      -0.37142871       0.13312401      -0.26777500      -0.25983220
H        4.34404679      18.47182359       3.97071934       0.14282963      -0.07555954       0.09018773      -0.67050231       0.59926534       0.43698213
O        3.70558855      15.72242017       4.86754364      -0.13032538      -0.05712667       0.31117637      -0.30596566       0.42145249       0.52472162
H        5.40393690      15.65485691       3.76385019      -0.09671307      -0.21465202      -0.25140447      -0.03762170      -0.29412657      -0.15123913
H        3.96079712      16.41271148       3.01165870       0.05638470       0.01550485       0.09501748      -0.19425173       0.09940267      -1.43062234
C        2.35150336      16.21484482       4.90118838      -0.03525586      -0.16465220      -0.23866494       0.19218116      -0.97769231      -1.27769649
C        1.39640117      15.01628875       4.92177198      -0.46384330       0.71959531       0.23410783      -0.91450739      -0.76052481      -1.23671079
H        2.13269706      16.75254477       3.98606217      -0.30920299      -0.30473758      -0.05223817      -0.02156032       0.24007614      -0.45668122
H        2.17615657      16.90814605       5.69449254      -0.13376160       0.28099614       0.07061505       0.08536103       0.35257849       0.92774725
O        0.16240556      15.28929566       4.13560126      -0.81367725       0.80400366      -0.25763161       2.26432991       1.06449592       0.92419237
H        1.90574857      14.14810935       4.44714738       0.03678850      -0.06069191       0.14304826      -0.12602638       0.48351130       0.13365310
H        1.14016163      14.69222738       5.92713805      -0.05962475      -0.07343468       0.36527898      -0.29589164       0.09950735       0.29180726
C       24.91566028      14.21724543       3.96029765       0.54235236      -0.25770887       0.00630821       0.13115680      -1.91270006      -1.32745385
H       25.31603692      13.34670207       3.31201155       0.01617791       0.14707435      -0.31735516       0.09317724       1.03422749       1.14314413
H       24.07724464      14.51413908       3.35692678       0.16107353      -0.05064005       0.05608264      -0.43336162       0.53830892      -0.05007240
H       24.54215789      13.83090690       4.89557661      -0.34298325       0.25088126       0.02400779      -0.10344919      -0.40169644       0.50465780
H       21.63951730       5.05075976      21.04455159      -0.19510320       0.17822024       0.01877661      -0.34916484      -0.22942422      -0.36247721
C       22.18781539       4.45049495      20.31205518       0.66781276       0.71309265      -0.50551366      -0.24580894       2.39596486      -0.60054982
O       21.38232847       4.15901456      19.15664199       0.40809377      -0.24522252       0.32333454       1.27871609       0.78769672       1.59955096
H       23.10319114       5.08337516      20.09025059      -0.02478210       0.07961634       0.05045597      -0.68174165      -0.93781269      -0.16324805
H       22.43941294       3.54393651      20.78638361       0.31123619      -0.17026967       0.03441662       0.73790026      -1.14204478       0.68496233
C       21.95534947       3.02218359      18.52905736       0.99378960       0.84542097      -0.07880344      -1.30639219       1.71832097      -0.02415345
C       20.93273256       2.67920710      17.53458154      -0.07856958      -0.26378694      -0.06360123      -2.10858512       0.90584052      -1.02727878
H       21.94528727       2.25182340      19.29215799       0.25741229       0.01085868       0.11602587       0.72733498      -0.69062996      -0.20335978
H       22.90029769       3.30511277      18.09465212       0.03161728       0.08498678       0.01738781       0.75914645      -0.29877239       0.02325824
O       20.72274349       3.69625662      16.50625299      -0.00837688       0.48952156       0.13919889       1.21184921       0.16168912       0.51795691
H       20.00465632       2.73964456      18.15998664      -0.15109718       0.02174149      -0.17560611       0.22990948      -0.97447211      -0.70660758
H       21.18134195       1.75421231      17.06881511       0.11452810      -0.09706497       0.29227438      -0.34001645      -1.04766262      -0.27429649
C       19.60497207       3.54543836      15.65824567      -0.10331263       0.76213444      -0.58780629       0.00121096      -2.98477674       0.65119749
C       19.79623425       2.43535159      14.56648515       0.38157141       0.31530930       0.32230867       0.48257458       1.01023364       0.91991276
H       19.42197959       4.47290240      15.14336484       0.15599222      -0.18066410      -0.07450766      -0.09142964       0.44323373      -0.00034372
H       18.71612961       3.21329586      16.25111304      -0.11482439      -0.00567418      -0.15224837       0.53447199       0.71744990      -0.40989849
O       19.80554758       1.11010446      15.09904248       0.87483021      -0.38365431       0.59947066       0.11860462       0.81615448       0.08588000
H       18.95055868       2.60023616      13.92263258       0.15468340      -0.04416002      -0.24115047      -0.58215266      -0.31989020      -0.71057022
H       20.73136407       2.65714299      14.02245139      -0.25151533       0.10903664       0.07453401      -0.08938754      -0.24681230       0.01100926
C       19.82504197       0.10781052      14.12387360       0.18218976       0.04189246       0.12847211       0.39524114      -1.66553044       0.17437559
H       20.81741530      28.08810026      13.58029471       0.14119554       0.09469773      -0.17998386      -1.09055054       0.49798808       0.71308708
H       19.02462250       0.20971802      13.39594149      -0.04643880       0.10115116      -0.14968156      -0.12291597       0.38685089      -0.35455307
H       19.57102411      27.25893701      14.63969964      -0.05638650      -0.20069738      -0.12322115       0.61585885       0.91220289      -0.43086153
H       23.27662337      20.34502800      22.28305697       0.14368570       0.13303001       0.13631620      -1.02523589      -0.28645280      -0.31467649
C       22.44176566      20.12620551      21.55451035      -0.79931042       0.33277104      -0.25280290       0.62750959      -2.17251563       1.39025259
O       21.53926007      19.05447580      21.95703473      -0.06504509      -0.67827860      -0.18058553       0.69848698       0.40636382      -0.17102818
H       21.89354441      20.97941137      21.32938393      -0.19297274       0.06341500      -0.03549854      -1.15202224       1.47424340      -0.07604067
H       22.88718539      19.75057827      20.67375937       0.28757051       0.13948631       0.08151465       0.73395616      -0.00484165      -1.18435967
C       22.26578116      17.84664219      22.12902057       0.87721801      -0.25218191      -1.29408287       1.35286665      -0.29614058      -0.35716981
C       21.43902888      16.55421675      21.92136452       0.11425797       0.54362375      -0.67443737       1.04094052       0.26472494       2.05263090
H       22.68872035      17.81262267      23.15614078       0.15690998      -0.02456650      -0.13910849      -0.38149351      -0.09422824      -0.23599988
H       23.19152435      17.78600846      21.47341594       0.38091530      -0.05959216       0.06970709      -1.06470490       0.40300515       0.29996058
O       22.12100639      15.53652374      22.72211509       0.93785836      -0.85315064       2.29936829       0.52396935      -0.25980669      -0.70886129
H       21.30615712      16.22267378      20.89691961       0.05354161      -0.16171804      -0.07951938      -0.01796889       0.08181284      -0.23677537
H       20.48987532      16.73225514      22.43660296      -0.16946090       0.02226500       0.41907761      -0.09425273      -0.40069449      -0.36041468
C       23.31617735      15.00390863      22.02265322       0.40955543      -0.76142767      -0.40254617      -0.69291919       0.25825441       0.95417124
C       24.25747420      14.17382037      22.94520470       0.50347130      -0.01679482      -0.04291120      -0.89221519       1.27418172      -0.45210570
H       23.77618171      15.86021083      21.53803739      -0.04246861       0.14615911      -0.18659473       0.53257942      -0.21271741      -0.10092043
H       22.93317893      14.32399785      21.29630255       0.10381216      -0.01572631       0.00995707      -0.21893127      -0.51754087      -0.95385820
O       25.02874461      14.97891739      23.80442668      -0.87054388      -1.05368111      -0.71229388       0.01353900       0.10515574       0.34750894
H       23.58167656      13.52008958      23.48624357       0.06894221      -0.03724204       0.06842352      -0.10368796      -0.33062080       0.48825455
H       24.95465981      13.52585556      22.39621989      -0.22590648      -0.14001140      -0.29414395      -0.29772237       0.37507546      -0.19936988
C       24.40214171      15.31369631      25.03696866       0.56615849       0.68270532       0.18317543      -0.73959094      -0.64630127      -0.28740600
H       23.75520794      16.19975334      25.01338160      -0.23846275      -0.04445937      -0.19802013       0.25189862      -0.07256746      -0.20888865
H       25.14193649      15.37707473      25.79026802      -0.06666096      -0.42813879      -0.06623029       1.02462375       0.72355211       0.64298785
H       23.81072992      14.47323868      25.39075579      -0.22978241       0.15221716       0.16785381      -0.56829453      -0.23009871      -0.16073447
H        7.46206450       7.52547013      12.85269800      -0.08939595       0.15618931       0.24047522       0.19381720       0.19327486       0.32312348
C        6.67515895       7.14605318      12.21923097      -0.30273253      -0.25795247       0.36372554      -0.07749614      -0.69372374      -1.17442060
O        5.78497539       6.42343380      13.00403201       0.46135465      -0.04610185       0.25616047       1.10138226       0.20361710       1.52125096
H        6.11227118       7.94783706      11.77493329       0.09342680       0.23504329       0.06226279       0.01286145       0.76201653      -0.51079130
H        7.15861400       6.54052732      11.40625980       0.33474988       0.09770506       0.37302105      -0.42856464       0.25144693       0.50046438
C        4.80889823       5.60138634      12.46292448      -0.00223306       1.02991950       0.36243476       0.46649936      -0.33076134      -0.51653421
C        4.10013063       5.00888364      13.67272140       0.38773816      -0.47081711      -1.05565797       0.42309308      -0.42947096      -0.75524998
H        5.26605549       4.83580630      11.79013681       0.09002565      -0.00033695      -0.17402582      -0.31331301       0.10463746       0.52572495
H        4.12905609       6.17364285      11.83931851       0.05580199       0.25889552       0.11074219      -0.44112593       0.32085261      -0.16990633
O        4.66104812       3.78337061      14.09100372      -0.11403455      -0.23884395       1.25079772      -0.78605610      -0.28065956       0.65883100
H        3.07862354       4.82875800      13.33841433      -0.02939005       0.07850961       0.11667310      -0.10221962      -0.29309729       0.46623722
H        4.12057881       5.74809784      14.47131965      -0.13990157      -0.14418755       0.17683583      -0.18513495       0.21337400       0.12487467
C        5.94260322       3.78825782      14.73162579      -0.07779735       0.26405378       0.39706413       1.42444098       0.51600885      -2.02872205
C        6.01313353       3.95759434      16.21302710      -0.56865735      -1.00969467       0.19636335      -2.18892717      -0.63503593      -2.09840679
H        6.53967649       4.60208033      14.22824963      -0.18003207      -0.16206768      -0.17373739      -0.16639793      -0.94687092       0.54701132
H        6.33536098       2.80024645      14.49600508      -0.04050968      -0.12027207       0.03778962       0.12148385       0.26633447      -0.10371568
O        5.22620553       2.91810195      16.73794378       0.78942750      -0.43475246       0.54409182       0.35708800       0.49272549       1.13941312
H        6.97067373       3.87902250      16.60890891       0.03864251      -0.09857432      -0.14584452       2.02573729       0.07396185       0.29765537
H        5.63884435       4.93545281      16.36569340       0.12384952       0.07928734       0.17157553      -0.76764870       1.12000644       1.17097998
C        5.42035342       2.87050065      18.13255322       0.17906684       0.78055655       0.18955346       1.20877087       0.95015228       1.15851557
H        4.62139900       2.21470487      18.41947498      -0.25428654      -0.05376905       0.12178433       0.09686890      -0.64440775       1.06056142
H        5.30580596       3.86019002      18.68999138      -0.11529242       0.15812606       0.12887537      -0.46978819      -0.80649489      -1.02220106
H        6.50362771       2.63775031      18.50030021      -0.19805162       0.12185961      -0.01818773      -1.79238975      -0.42353335      -1.02932131
H       19.60532780      14.68417048       2.46448689       0.20325594      -0.12761738      -0.02830235       0.41850513       0.15598761       0.37112594
C       19.12640632      13.75870671       2.16220574      -1.69469206       0.54661458      -0.31719019      -1.00565732       1.09211493       0.20181952
O       20.03643560      12.79778293       1.75238406      -0.34048735      -1.22629106       0.35910708       0.25332713      -0.64457852       0.10627662
H       18.47777914      13.43566811       2.99114288       0.00285561      -0.06505409      -0.05741966       0.18242487      -0.15667641      -0.19129927
H       18.46578955      14.08493432       1.35474421      -0.02423087      -0.00642284      -0.19141440       0.07173633      -0.59457511      -0.23734353
C       20.61659673      12.11402739       2.85367165      -1.07552816      -1.17809198      -0.05335278      -0.71744448       0.14997490       0.43703172
C       21.81282840      11.39083841       2.35214482       0.06984881       0.42825868      -0.26133740      -0.18015298      -1.26442420       2.64170241
H       19.94092739      11.40169371       3.32406683      -0.07216849       0.00051061       0.30195153      -0.62281865      -0.23647361      -0.46335188
H       20.80050553      12.79920271       3.70199821       0.02104796      -0.14287740       0.26101363       0.55833709       0.15253617      -0.44597119
O       22.81912514      12.28283512       2.14432408       0.68465549      -0.74079031       0.50216259       2.08888268       1.37134159      -0.25249654
H       21.55787544      10.80113269       1.51718622      -0.14935322      -0.14444331      -0.19407503      -0.34073463      -0.49104598      -1.44972086
H       22.14659037      10.62504518       3.10425613       0.10461899      -0.08470486      -0.09378450      -0.34440118       0.54792506      -0.35961679
C       23.36469066      12.25530144       0.84666502      -0.30498522      -0.90247825       0.57571228      -0.68099666       0.22351520      -0.21137621
C       24.45260368      11.27533288       0.63401717      -0.14267167       0.85386731       0.50459481      -1.42984509      -1.69633508       1.21750081
H       23.82122986      13.17677958       0.57518065       0.20792997      -0.15693977       0.01285601       0.26364923       1.45564008       0.39504483
H       22.49448844      12.19758140       0.20471892       0.15633920      -0.04918441       0.25037108       0.03348766      -0.57461512      -0.82888025
O       23.89793432       9.93090842       0.73826863      -0.21355037       1.21006591      -0.04729173       1.60900891       0.43913141       0.62467378
H       24.93935886      11.42489166      27.51794459      -0.10940301      -0.01064689       0.15974803       0.45349434       0.00413895      -1.29804921
H       25.20012891      11.40520934       1.41960976       0.07536653      -0.04106737      -0.14621854       0.11792377       0.02327061       0.21748893
C       25.00020048       9.02302648       0.61026306       0.27840759      -0.75015101      -0.44967982       1.65255868       1.79519284      -3.32085419
H       24.77748681       8.04140303       0.90094942       0.16692511       0.02773161      -0.08920513      -0.56278425      -1.25370800       0.98524374
H        0.40944334       9.40636132       1.06946235      -0.07097310       0.12398460      -0.08356657      -1.97390521      -0.62558329      -0.59772605
H       25.16127791       8.94379725      27.26521246       0.18328506       0.12753905      -0.16276267       0.21343015       0.08351806       1.86368608
H        1.42905923      20.18148455      10.93355916      -0.05442232      -0.08098534      -0.06624643       0.75343144       0.45223659       0.77118224
C        1.86535361      21.14535614      11.32777973      -0.47158865      -0.45883190      -0.37930724      -0.22800225      -0.11153121      -0.01855065
O        1.79550613      21.32283905      12.76738776      -0.72068851       0.51395069       0.99502835       0.55736095      -0.20332448      -0.51512790
H        2.89468281      21.33142560      11.00015376      -0.20685489       0.24035796      -0.16239051      -0.10831710      -0.54724747      -0.05963540
H        1.26703742      21.90923762      10.78940841      -0.12617976      -0.11267376       0.08440346       0.11991348      -0.00148933       0.87171787
C        2.82028853      20.66437031      13.55502681      -0.27043532       0.18935429       0.08655743      -0.96122938      -0.48167130      -0.25348750
C        2.53242945      19.16182417      13.77078045      -0.61269070       0.10595755       0.89279236      -1.58550930       0.30830231      -0.38617310
H        2.94136778      21.23509355      14.49438760      -0.01830375      -0.06244927      -0.03155034      -0.80836469      -0.46781033      -0.13425618
H        3.81679742      20.73971350      13.16205121      -0.02984847      -0.15488674      -0.22180929       0.58649683       0.14184240      -1.09173310
O        1.14321934      19.02915854      14.27632594       0.03781613       0.14733997       0.59097374       1.39902139       0.52068090      -1.03657055
H        3.28361847      18.77367076      14.45247352      -0.13176443      -0.24553726       0.02895967      -0.10142796      -0.17258084       0.52170771
H        2.63670283      18.51557850      12.84154688      -0.04731680      -0.29957745      -0.04151350      -0.23469871       1.00977325       0.74671203
C        1.06004760      18.24843131      15.42853271      -0.69487615      -0.10138343      -0.28143737       0.68016016       1.26443255       1.39307201
C       25.26599484      18.04372078      15.90929974      -0.97800489       0.57246901      -0.08472051      -0.23487820      -0.56904167      -0.41642591
H        1.68697532      18.67860030      16.21971131       0.07435420      -0.21242120       0.14384741      -0.09113624       0.33442473       0.22974932
H        1.49520953      17.33073917      15.24313052      -0.03241434       0.29259050      -0.02309575       0.89295870      -2.40703297      -0.32072565
O       24.70904107      19.31537948      16.18891404      -0.06823106      -0.68355921       0.47285683       2.18302989      -1.10424221      -0.50881284
H       24.78849337      17.46611820      15.07010337       0.13436792       0.00722022      -0.02114401      -0.49708629       0.81433457       0.43889835
H       25.21452266      17.32441445      16.78276578      -0.15195608      -0.18232123      -0.07162582       0.19107734       0.93087387      -0.50980777
C       23.35520534      19.28523075      16.28275592       0.19683016      -1.07024656      -0.25548212      -2.16646838       0.51577073       0.64052230
H       22.87723468      18.95642966      15.34166782      -0.03691941      -0.11429276       0.15030634       0.00825606       0.46651134      -0.06428245
H       23.05187767      20.33566961      16.57640214      -0.11903514       0.25483258       0.10737204      -0.05892043      -1.37148166      -0.35873348
H       22.99334372      18.52303751      16.99672485       0.01407890       0.15486259      -0.00170863       0.21174498       0.59547973       0.15047869
H        0.96048006      11.36000731      15.26929201      -0.09640360      -0.07491122       0.24473010       0.21630780       0.18469356      -0.31785893
C        0.19731789      11.58269430      14.51093365       0.72372174      -0.18740988      -0.01569592      -0.24902257      -1.56447995       0.28958061
O       24.78633115      12.39261493      15.08647751       0.24035786       0.07058325       0.73148828      -0.08455241       0.14241527      -0.55088252
H        0.62042263      12.04109561      13.61916132       0.23802807      -0.01513627      -0.09101957       0.28308120       0.23118585      -0.05550776
H       25.44387160      10.52767946      14.18772119      -0.25505170       0.18426470      -0.06222734      -0.14651205       1.87505198       0.59990472