2430
Lattice="28.8963686657481 0.0 0.0 0.0 27.459532594944605 0.0 0.0 0.0 28.38796046275439" Properties=species:S:1:pos:R:3:momenta:R:3:forces:R:3 Origin="-14.3933 -14.3933 -14.3933" charge=0 spin=1 energy=-1809951.9279247937 stress="0.0018663096707314253 -0.00021960196318104863 0.000136844115331769 -0.00021960196318104863 0.0021560094319283962 0.00021210266277194023 0.000136844115331769 0.00021210266277194023 0.0017766845412552357" free_energy=-1809951.9279247937 pbc="T T T"
H       24.15753657       3.60897236      17.05308866      -0.10535951      -0.11229418       0.18944290       0.79592174       0.16781726       0.33368120
C       25.23835255       3.89859885      17.09841520       0.65431391       0.57651205      -0.17888386      -1.34173930       0.32882240       1.07539105
O       25.44363156       4.68119830      15.97639569      -2.16123419      -0.08336325       0.44043454       0.40153819       0.88754547      -0.77551073
H       25.41562994       4.54283469      18.00175151      -0.01926968      -0.31819112       0.07133603      -0.10168840      -0.96098113      -0.28629023
H       25.83107491       2.97698073      17.11138919      -0.18932525      -0.13986575       0.04388591       0.21024683       0.11657667       0.05018213
C       26.76337388       5.21834403      15.86838559      -0.52738850      -1.14747422      -0.16234805      -0.28286132      -2.02042150      -1.52930379
C       27.13650412       6.37320298      16.72806581       0.03956655      -0.16009924      -0.63994778       2.05810213       1.14910412      -2.85317850
H       26.81311433       5.45758067      14.78729238      -0.04185119       0.07994767       0.19355046       0.31654823       0.18907300       0.56062233
H       27.45341253       4.35896138      16.01251541       0.03859775       0.03213187      -0.03883890      -0.00095831       0.52729446       0.06606052
O       26.43899371       7.54839756      16.31307672       0.25945796      -0.76151894      -0.44611332      -0.06460603       0.25470588       1.13470006
H       26.98230228       6.18871728      17.73643931       0.15242060      -0.21481921       0.09737825      -0.52478743      -0.03000611       2.07405996
H       28.28072431       6.51068763      16.57243183       0.06773392       0.00402606       0.00165602      -1.53491092      -0.09072827       0.33901888
C       26.89920416       8.18157729      15.13859689       0.15868025       0.69063078      -0.35239895       1.05937278       0.50706333       1.02380204
C       25.83874007       9.05756249      14.60204750       0.21194181       0.01952300      -0.00668402      -0.21810658      -0.12939773      -0.49462095
H       27.81570611       8.77388941      15.24770941       0.10014799       0.22906497       0.27264195      -0.18058574      -0.07376609       0.71758062
H       27.16770432       7.42654215      14.46787936       0.04237759      -0.29438302      -0.20619263       0.25644496      -1.15855765      -1.64824736
O       25.85089751      10.35615364      15.17746408      -1.05406115       0.16883560      -1.14154641       0.16039631      -0.88625377      -0.55733001
H       25.89591736       9.06912655      13.50800693       0.05639051      -0.04479443      -0.07804618      -0.02926288       0.36869496       0.09077797
H       24.96674278       8.50386823      14.88848362       0.00148363      -0.03007356       0.21065770      -1.17887950       0.06733088      -0.00883149
C       24.55583224      10.93486701      15.33803177      -0.14755694       0.66623195      -0.97815190       0.58831388      -0.48913643       0.12511626
C       24.19742474      11.77003760      14.17954689       0.00182719       0.44801714       0.25535464       1.41810811       0.86819065      -2.16469145
H       23.77184382      10.15237939      15.38029492      -0.27937938       0.19377675       0.06723670       0.36680242       0.33410561       0.65209627
H       24.75792322      11.50433521      16.21987475       0.08051253       0.18282803       0.02084758      -1.09888792       0.43717930       0.72220701
O       25.21808708      12.80557946      13.90068388       0.80094685      -0.49150993       0.37116647      -0.63962471      -0.58912528       0.11435284
H       24.10382204      11.09191554      13.28815091      -0.07899918       0.09256626      -0.01563495       0.00225316       0.71731186       0.43976307
H       23.31353173      12.34681442      14.28926581      -0.29845469      -0.04418790      -0.10462984      -1.31056106      -0.13273410       0.41448262
C       24.61011564      14.11401823      13.78538234       0.54721136      -0.08874576       0.30187703       0.91892689      -1.83560717       2.78481507
C       23.81760774      14.27589031      12.61522234       0.36590165       0.84734333      -0.14170141       0.23832829       0.51613802      -3.32953596
H       24.15020558      14.33958812      14.73893124       0.21103145       0.16758437       0.15611347      -0.92907470      -0.16308331       0.18142140
H       25.36392442      14.85239654      13.78109366       0.09834904      -0.04385934       0.03818337       1.37352502       0.49342927      -0.38549945
O       24.77976696      14.50091218      11.48991921       0.24901723      -0.67353566       0.26763408      -1.36534071      -0.16061845       1.03592050
H       23.13374600      13.49521764      12.27477733      -0.01209453       0.10096024      -0.04999473       0.04978922      -0.16526121       0.60123855
H       23.23631785      15.15973124      12.72554828      -0.17483949       0.16827435       0.12988616      -0.59364176       0.99677902      -0.05169688
C       24.72454329      13.37690688      10.65633026      -0.52139884      -0.23449365      -0.02402756      -0.18070221       0.42277110      -1.93347800
H       25.13684048      12.50446141      11.09135741       0.05704526       0.38278720      -0.19352104       0.70870185      -0.98533326       0.83870018
H       25.27335645      13.57685930       9.71618332      -0.00246438       0.09191261      -0.06463358      -0.20628397       0.07907169       0.52910471
H       23.69653306      13.11442108      10.37175273       0.07826138       0.18584547       0.05145779       0.00526951       0.30758190      -0.09395315
H        9.30474925      26.19572298       9.73807018       0.04893994      -0.14650583      -0.20044068       0.28684860       0.09219171       0.10973179
C       10.31844089      26.50395615       9.44023052      -0.45311768      -0.14960806       0.41551876      -0.03669491      -1.57927585       0.70499825
O       11.14003393      26.89401683      10.52582996      -0.66898582      -0.65816742      -1.17341480      -0.32870585       0.28621328       0.06346738
H       10.82484179      25.72408931       8.89261684       0.12748389      -0.10197153       0.10197480      -0.04619225      -1.03747571       0.12711029
H       10.27966488      27.24565375       8.72699686       0.14198891       0.15433781       0.11694054      -0.26066995       2.07281947      -1.07107902
C       11.09426237      25.94566469      11.53940175       0.62405163      -0.48387378      -0.54614804       0.50802571      -3.05495405       1.32221937
C       12.12715134      26.15655457      12.62486051       0.02195723       0.31011482      -0.89214405       2.30253816      -0.98192692       0.69676602
H       11.19222190      24.85129067      11.18327407      -0.08327745       0.21385552      -0.08364014       0.25451809       1.68353915      -0.06511854
H       10.16900157      25.87300193      12.10283789      -0.02468019       0.00494418      -0.05093397      -0.94227976       0.60713589      -0.23589794
O       11.72009251      27.12659998      13.58362691      -0.26407453       0.51767778       0.08227755      -2.24119306      -0.13278341      -1.35595000
H       12.41055726      25.18379767      13.20205712       0.02891287      -0.36683225       0.24959460      -0.81428391       1.36271691      -1.42440748
H       13.09349732      26.53083438      12.19013958      -0.09781469       0.17731774      -0.10868261      -0.61459780      -0.40809608       0.17093997
C       12.42804241      27.10776330      14.76470215      -0.51445813      -1.18433440      -0.12538766       0.42457068       0.70896757       1.06388628
C       12.22778419      25.92022527      15.71276414      -0.13837891       0.84953129      -0.69972221       0.43943501      -0.27739665      -1.40582943
H       13.43727941      27.11148624      14.45998876       0.12878657      -0.02266393      -0.12838022       1.89943469      -0.05679057       0.05907008
H       12.26896568       0.61674303      15.22510715       0.27384614       0.05635755      -0.17290962      -0.28660032       0.09455773       0.51310980
O       12.91858203      26.18095407      16.93342202       1.27186998       1.18184553      -0.59884745      -0.16754493      -0.28626889      -1.24478805
H       11.18149290      25.70445492      15.85430597      -0.16499092       0.25094586      -0.22561432      -0.60112661       0.02827393       0.36965236
H       12.62686360      25.06220967      15.11736032       0.18578441      -0.00421981      -0.18104683       0.02217698       0.11003590       1.08590412
C       13.22485102      25.02021599      17.69044025       0.40200348       1.28258144       0.19832466      -1.44145620       1.73011470       1.50074971
C       11.99049031      24.35958096      18.29028826      -0.64183423       0.61772270      -0.11925429       1.92929947      -0.67817152      -2.11807942
H       13.86805432      24.34315461      17.19560986       0.15939271      -0.04437567       0.21371804       0.72446483      -0.85466838      -0.76106203
H       13.69081218      25.48109305      18.55645398       0.03265478      -0.30766067      -0.13619692       0.72306025      -0.22496419       0.20976464
O       11.46963028      23.46833022      17.36541757      -0.54130439      -0.21786953       0.81638166      -1.98966420      -2.18536282      -0.40553823
H       12.29642536      23.81927557      19.14149816      -0.08618229      -0.19591886      -0.13684406       0.33966336      -0.34577110       1.50295222
H       11.28786540      25.10013854      18.45924365      -0.03942382      -0.14966828       0.07870975      -1.47534907       1.74596155       1.06180692
C       10.21288952      22.85588922      17.87339955      -0.03400357      -0.49838864      -0.68317416       0.46443948       1.88874090       0.25713763
C       10.33805408      22.27416589      19.25958061      -0.48650177       0.09735398       0.68990513       0.49877328       1.49663305      -0.22290380
H        9.46605920      23.67134863      17.89049944      -0.00989919      -0.06757866       0.16577636       0.08589948      -0.21339199       0.09740695
H        9.83980428      22.10597347      17.21812563      -0.05692334      -0.08830120       0.25134176       0.23386937      -0.58374470      -1.02287519
O       11.25378165      21.25577898      19.17204245       0.27892018      -0.31420886       0.19800294       1.59042907      -1.97194743      -0.05525518
H       10.70587009      23.06890009      19.89847838      -0.04437632      -0.28597893      -0.08551312      -0.08227274       0.07980536       0.60466450
H        9.37486167      22.00963023      19.65689758       0.06090602       0.03403601       0.05994684      -0.63559902      -0.55098391       0.11343265
C       11.33897459      20.32453414      20.26557435      -0.74894313       0.00358838      -0.23911543       0.65411454       2.59680176       0.99202359
H       11.89562270      19.45681166      19.96196652       0.12178818      -0.10581421       0.23495854       0.23198216      -0.24538995      -0.17888033
H       10.32948315      20.09530017      20.49036304       0.08374138       0.25655124      -0.18950855      -0.92098218      -0.77944738       0.77803314
H       11.83723827      20.80813544      21.20995807      -0.11805844      -0.16966352       0.37775181      -0.85107070      -0.75439155      -1.61038339
H        4.79328594      20.88095632      11.23749119       0.07764603       0.13343504      -0.09945410       0.00467159      -0.04652506      -0.37587169
C        4.44209370      20.26031993      10.39367336       0.56267370      -0.38702047       0.29486826      -0.38363278       0.14259024      -0.02220605
O        4.00993095      18.98577437      10.87387973      -1.02173034       0.13507466       0.16270352      -0.20855580       1.27815378       0.13745624
H        3.66718865      20.87399403       9.79713977       0.28201684       0.07436465       0.17923204       0.81395137      -1.19961667       0.81376070
H        5.25301918      19.95453589       9.74164687      -0.14159997      -0.41929767      -0.11971045       0.34957027       0.62094802      -0.24711518
C        2.76202767      19.02615875      11.50825800      -0.80918591      -0.40446056      -0.58324651      -1.66540444      -2.26824999      -0.14480302
C        2.01392919      17.73991879      11.03051990       0.16060762       0.29656392      -0.75327624      -0.98439533       1.56919563       0.03424643
H        2.13696327      19.87275901      11.22865502      -0.28506571       0.01724106      -0.07315733       0.21005765       0.25994289      -0.37802950
H        2.68642266      18.99495760      12.62780001      -0.08124622       0.26248666       0.00959406       0.97795641       0.06378113      -0.62927115
O        1.58127031      17.86026288       9.64392747      -1.03493691      -0.68208686       0.56935311       1.07143474      -0.02191595       0.90281916
H        2.60310305      16.81860883      11.17322290      -0.14083373       0.06176884      -0.06183248      -0.14119197       0.34578574       0.04643892
H        1.05582912      17.73977481      11.60083486       0.21890761       0.00138046      -0.11111041       0.67210788      -0.47773054       0.01082880
C        1.08015971      16.60401703       9.25637683       0.19268571       1.43330220       0.16192948      -0.81311733       0.88140792      -0.72381139
C        0.04025754      16.70519867       8.17036591       0.12073671      -0.60577666       0.50129391       0.49994162       0.56560147      -1.77254570
H        1.82137034      15.86003489       9.04188942      -0.27667451      -0.12625996       0.07902293       0.91690010      -0.14330077      -0.36163849
H        0.51481531      16.20913175      10.05743068       0.04647050      -0.00408058       0.03086848      -0.65695536      -0.67795444       1.27341795
O       27.64209008      16.74108265       8.73835553       0.62451837       0.13252784      -1.53357421      -0.18609151      -0.79827583      -0.56084520
H        0.09080730      17.57893637       7.43092976       0.10189906      -0.02184667       0.06449157       0.63566041      -0.95476490       1.11190975
H        0.14280750      15.79543293       7.51708043      -0.23511197      -0.08159385       0.05292046      -0.10189095       0.55569607       0.56578147
C       26.74252789      16.25471440       7.74314310       0.52748336      -0.38008476      -0.28877306      -2.14150238       1.93970001       0.28285524
C       26.26631591      17.40291701       6.80433889      -0.21313945       0.48386052      -0.48878559       1.20072460       0.44790715       2.23382854
H       27.24048858      15.53205940       7.14590493       0.07447282      -0.17304033       0.30043764       0.05381320      -1.19276488      -0.34278092
H       25.79640366      15.91176343       8.21148014      -0.01996915      -0.06112824       0.06166887       0.93024248      -0.24790324       0.06594479
O       27.22257070      17.69253725       5.80719392      -0.82860201       0.53754212      -0.13417004      -0.72875625       0.33346048      -0.57003778
H       25.28828800      17.17927333       6.41034516      -0.08581343       0.00428957      -0.07097760      -0.36958146      -0.05658073      -0.36132440
H       26.19521082      18.27750949       7.51898770       0.09830687       0.01411556       0.55206690      -0.02532841      -0.50253469      -0.97630113
C       27.02033292      16.83062578       4.68494978       0.24672948      -0.36812868      -0.00866511      -0.52581698       0.64331847      -0.10937139
C       27.48082385      17.47647456       3.40394122       0.06463781      -0.16263324      -0.16378948       0.28691372      -0.20680043      -0.21682423
H       27.56215756      15.93039512       4.87085123       0.04990424      -0.02488574       0.08378383       0.62209803      -0.85770553      -0.26767719
H       25.96896971      16.53999925       4.60225472      -0.00542513       0.02104025       0.02477730      -0.13647178       0.19310965       0.02427883
O       26.75520047      18.67878150       3.11511396       0.88641829       0.08776404       0.13323115       0.19462951      -0.59618294       0.07003376
H       28.55248289      17.70270696       3.53066095       0.03318252       0.15995829       0.32557565      -0.02760849       0.15097786      -0.24648367
H       27.40494522      16.73791689       2.56417880       0.00605155       0.23760860      -0.07350946      -0.08411882       0.54048085       0.63913286
C       27.01123096      19.08384474       1.79065910      -1.05380602      -0.30875992       0.08234042       0.21831089       0.27205592      -0.77988064
H       26.58249909      20.11140267       1.64908703       0.07424233      -0.12693261      -0.06969536      -0.22275533      -1.08481884      -0.02076632
H       26.61420859      18.28381915       1.04716435      -0.32422478      -0.01360577       0.11806481       0.62811589       1.42615080       0.92597169
H       28.11209962      19.26185272       1.63863994      -0.29650398      -0.16600982      -0.09284498      -0.68818921      -0.54626864      -0.04806633
H        0.19716672      12.72638671       7.21927638      -0.26416326      -0.05854479      -0.18655515       0.13989729      -0.49261653      -0.39761260
C        0.23891670      13.07697630       6.16762289       0.30811738      -0.02748750      -0.21134228      -0.11790890      -1.74406612       0.32296997
O        1.18257228      12.33685663       5.35096869      -0.78860445      -0.10882639      -0.73090341      -1.15180600       0.31904173       0.18835475
H       28.08971101      13.07011037       5.78644147       0.57151729      -0.02506690      -0.23975915       0.97429675      -0.06555759      -0.27106163
H        0.63899495      14.02936183       6.26283997       0.22971728       0.06411368      -0.16904838       0.30062938       2.27884316      -0.17346556
C        2.49279802      12.49376024       5.81907441      -0.23780122      -0.30650683       0.03917538       0.89119798      -1.28116298       1.97291875
C        3.44539417      11.57783225       5.05295785       0.91602752       1.12233458      -1.64841113      -1.91274488      -1.00140488       1.03425515
H        2.57230126      12.14469175       6.88325569      -0.14106178      -0.16331166      -0.13002204      -0.25394362       0.41631290      -0.40299889
H        2.89700628      13.52393721       5.80456339      -0.05031369      -0.30682714       0.24728164      -0.60347313      -0.18806706      -0.19501111
O        3.40887935      12.00769184       3.73897866       0.51261354       0.51372442      -0.14790915       1.67769647       0.31211323      -1.25077999
H        4.43411057      11.70735739       5.52154317       0.02699226      -0.11916216      -0.27862463      -0.01752543      -0.38824415      -0.19871776
H        3.09333100      10.47484946       5.08536777      -0.04477327       0.32006667       0.16233823       0.60168886       1.68897617       0.11832052
C        4.35302748      13.07265962       3.57416570      -0.30474605      -0.63859746      -0.42306280      -0.53980547       0.09164572      -0.15731409
C        4.51786195      13.32245089       2.09221847      -0.48315049       0.09029574      -0.12779611       2.01378512      -0.04088827      -0.64477295
H        3.93483968      13.98804107       4.05343383      -0.36515686       0.15746838       0.16898430       0.52702373      -0.50730371      -0.24387875
H        5.34531813      12.80282958       4.02648621      -0.07508581       0.28903197       0.06956777      -0.84039617       0.14556536      -0.35289034
O        5.24923574      14.56003786       1.98082610       0.61379037      -1.37766836      -0.79686306      -0.80872124      -0.45971629      -0.18263762
H        5.23887305      12.57455485       1.64471122      -0.00270924       0.22254429      -0.26817212      -0.99507290       0.04196142       0.38360527
H        3.58890204      13.30226478       1.49642478      -0.04105370       0.04935366       0.19338368       0.18397574       0.23237510       0.39432424
C        5.88259119      14.68921421       0.71898449       0.08319664      -0.07421529       0.95873573      -1.73422122       1.52515090      -0.44396791
C        4.99659490      14.56218562      27.87287827       0.03186763      -0.12651723       0.97833147      -0.34600502      -0.06020804      -0.18868284
H        6.34685923      15.67155652       0.72091871      -0.16503262      -0.19923824       0.13819044       0.00325297       0.11899791      -0.04738328
H        6.62637452      13.99125439       0.56718229      -0.11500682      -0.13293023       0.03203455       1.92671239      -1.76961446       0.08046716
O        3.98780921      15.51329463      27.93536751      -0.12486200      -0.39030183       0.60045998      -0.57871103       0.41031197       0.21172664
H        5.58235171      14.73968124      26.97725464      -0.11461926      -0.13743142       0.12816088       0.62758934       0.05421782      -0.14655754
H        4.51494162      13.58992720      27.70106770      -0.36653416      -0.26592470       0.00873317       0.25440112      -0.40035602       0.45252919
C        3.20117906      15.64549958      26.77083573      -0.49685356       0.29965950       0.58538329      -1.06095529       0.35647467      -0.08137784
C        2.18202278      16.72141227      27.16432679       0.43609490      -0.00751652       0.54049411       0.67556775      -0.48150375       0.10528135
H        3.79610669      15.94986308      25.88320350      -0.02504383       0.05817813      -0.05063619      -0.10374897      -0.09582388       0.44259191
H        2.58363263      14.73300765      26.49230415      -0.16575519       0.07492928       0.15170868       0.92557132       0.58342767       0.43349558
O        1.23088238      16.04345779      28.00145412      -0.40656592      -0.66379567      -0.09902408       0.10219339       0.45360202       0.01435011
H        2.75777498      17.62582708      27.56924294       0.14215946      -0.17218656      -0.09089420      -1.13058805      -1.29502022       0.22144084
H        1.67435547      17.05785597      26.29008031       0.18001556       0.11880019       0.24227229      -0.54298723       0.36437529      -0.91720188
C        0.10994444      16.82562427      28.36116980       0.58894227       0.68988997      -0.17814619       0.34423080       1.64054048      -0.13469572
H       28.52992291      17.33980669      27.52473081       0.06795580      -0.20915921      -0.01078753       0.14642219      -0.13837649      -0.74258387
H        0.45336812      17.68916002       0.57945774       0.07921967      -0.19388937      -0.00728474      -0.23101069      -0.52239662       0.33265722
H       28.18149116      16.28054388       0.42340477       0.04202210      -0.21983773       0.05461912       0.49586695      -0.57530105       0.38517851
H        8.81564634      20.04311572      15.34659419      -0.09798081      -0.06261439       0.01608330      -0.11914030      -0.19536655      -0.15982622
C        7.74166520      19.98412985      15.54242038       0.78012250       0.55489730       0.52887381      -0.40097800       1.04595566      -1.10991371
O        7.39532661      18.69266194      15.86121439       0.00254909       0.40033480       0.02406038      -0.20887041      -1.54599321       0.81389660
H        7.51361825      20.72279921      16.28332365      -0.15708785       0.03644899       0.15359339      -0.20595999       0.35017633       1.11908698
H        7.14690503      20.36306561      14.68319158       0.00705317       0.23623087      -0.09152485       0.53076988      -0.32392615      -0.20256218
C        6.00297352      18.35715887      15.80136411      -0.18652270      -0.30113374      -0.74126938       0.26054192       0.82650119      -1.59339356
C        5.85767697      16.83168076      15.85125157      -0.14223180       0.71132067      -0.32636349       0.53732717      -0.12925994       1.48218536
H        5.64490373      18.77642942      14.83118541       0.16112194       0.01430726       0.14858815      -0.00018487      -0.58235800       0.10762839
H        5.40085294      18.94301782      16.49979652       0.02646700      -0.31559906      -0.07211939       0.13131265      -0.51696050       0.69912165
O        6.54696504      16.14370261      14.82215294      -0.10982058       0.80421210       1.18650519      -0.04223694       0.37816876      -0.59471363
H        6.38381400      16.45894725      16.79396348      -0.17282725      -0.12269826      -0.11965605      -0.84351844       0.57710361      -0.88317311
H        4.78169498      16.52992180      15.86918074       0.13823034       0.21249839      -0.06824185       0.72915322       0.32763359       0.10112850
C        5.75176179      15.79587760      13.71265994      -0.21443384      -0.85354493      -0.00454514      -1.32027638      -2.26242685      -0.16823041
C        5.71641937      16.65336026      12.50403990       0.42733176      -0.51712902       0.27380299       0.39563811       0.88388664      -0.18852137
H        6.00885739      14.75946526      13.34620976      -0.24139393       0.00581345       0.27976402       0.07489689       0.88888305       0.67489195
H        4.69278931      15.70270506      14.02843789       0.19547088       0.00872671      -0.10422627       0.29061863       0.01488311       0.08668121
O        6.95632164      16.54081609      11.79042131       0.08862399      -0.34804251      -0.70565747      -0.97535229       0.42544827      -1.44903779
H        4.87700733      16.33524582      11.84059931       0.00674137       0.13383559       0.09454552       0.44933075       0.13190742       0.61227798
H        5.56638650      17.70092514      12.82381968       0.06354574      -0.26566337      -0.25503336      -0.09104731      -0.14138882      -0.43894815
C        6.66894524      16.67333003      10.35957481      -0.29007444      -0.42053200       0.49329898       2.00044537      -1.24208426      -0.16668470
C        8.05923603      16.80544943       9.62351400      -0.46317191       0.06094423       0.39320924       0.56836528       0.33188322       1.04505706
H        6.21080547      15.71479935       9.99694884      -0.15937090      -0.21088874       0.13693187       0.25148997       0.71140701       0.34399930
H        5.97303883      17.47688809      10.12395424       0.11666514       0.09306463      -0.18044599       0.02352005       0.26953232       0.18080930
O        8.57114214      18.18010985       9.39859337       0.43797869      -0.30826520       0.26001084      -1.22804594      -1.24817371       0.86527419
H        8.82894389      16.23021958      10.25196961      -0.00262532       0.03230479       0.10067645      -0.98234320       0.74997181      -0.72849613
H        8.03057558      16.33752867       8.64241417       0.08025792      -0.22870924      -0.13162189      -0.06681867       0.28406945      -0.04895136
C        8.43182546      18.94384134      10.60005732      -0.72710651       0.71964470       0.27493216       0.98609883       0.89117837      -0.29018912
C        8.46101836      20.43527142      10.25148155       1.25748502      -0.35391885      -0.14255184       0.30582681       1.23556089       2.81073213
H        7.48752162      18.74653189      11.12727379      -0.15503341       0.01531272      -0.04746583       0.22075592       0.11134867      -0.22780076
H        9.26389536      18.71184295      11.30039166       0.04362329      -0.13896846       0.18119208      -0.39929280       0.04411248      -0.43285507
O        9.67478409      20.92411520       9.68943049      -0.32952196       0.55479392       0.18171479       0.05261474      -1.24806345      -0.31420121
H        7.59945774      20.73002675       9.66401447      -0.00791161      -0.10135163       0.03632678      -0.18302193       0.04207041      -0.46801046
H        8.38232253      21.01316520      11.27276360       0.22709801      -0.25960281       0.18870928      -0.32055160      -1.05896175      -1.47084415
C        9.65711245      22.31069712       9.48841228       0.53053008       0.38261381       0.33787688      -0.30536130       0.71617055      -1.67277610
H        9.64778435      22.82660211      10.42683831       0.07825886       0.09683344       0.01596149       0.15776323       0.43238002       0.78871357
H        8.69981733      22.61043523       8.96692632      -0.27612126       0.25676184       0.17858504       0.93041098      -0.20138590       0.17985176
H       10.55535871      22.64836074       8.87640130      -0.18950985       0.17252424      -0.06625766      -1.11350906      -0.64666635       0.83405250
H        9.06883534      24.37202378       4.50677129       0.38962931      -0.08902836       0.14016354       0.04494012      -0.43149567      -0.21318246
C        8.44450812      24.73687892       5.30714407       0.51078175      -0.75764515       0.24542511      -0.16271771      -0.42828354       1.79018402
O        7.53684848      23.68912738       5.73588085       0.19760902       0.72413177      -0.16878855      -0.07196273       0.26131961       0.48367578
H        9.14505167      25.00305460       6.16245805       0.03640410       0.11921970       0.14277089      -0.89531052       0.12173851      -0.87573135