2016
Lattice="27.261487694657525 0.0 0.0 0.0 28.94681503444916 0.0 0.0 0.0 24.795222666828696" Properties=species:S:1:pos:R:3:momenta:R:3:forces:R:3 Origin="-13.90365 -13.90365 -13.90365" charge=0 spin=1 energy=-1110515.1890948776 stress="0.00417060824111104 -0.0004110046720597893 -0.00018381002882961184 -0.0004110046720597893 0.005003748461604118 -0.0005054562352597713 -0.00018381002882961184 -0.0005054562352597713 0.006292590871453285" free_energy=-1110515.1890948776 pbc="T T T"
H       10.87623993      13.53759271       3.99607623      -0.07823051       0.15567396      -0.35205868       0.02739441       1.33723080      -0.57994503
C       11.37444979      14.48963604       3.62928398       0.04219918       0.82075720       0.11410686       0.06098588      -0.47061220      -0.69385976
O       10.84016831      15.72272976       4.08486510       0.39465514      -1.22954398      -0.51314611      -0.10499338      -0.31593230       0.27284715
H       12.38905313      14.40056756       3.97454806      -0.46317231      -0.10654874      -0.08851335       0.38738087       0.18498176       0.44029981
H       11.50278350      14.51243779       2.51653767       0.26749619      -0.10258275      -0.04032998      -0.68512464      -0.25485143       0.50159067
C        9.42746192      15.81678263       3.92664714       0.80796309      -0.42424443       0.24537830      -0.94703871      -2.18845558      -0.49402222
C        8.93970644      17.22460316       4.32044532       0.32059774      -0.55095853       0.23937319       0.91376323      -1.60859239       1.76720321
H        8.92043567      14.97751079       4.56144616      -0.08726102      -0.17249488       0.24761941       0.71955568       1.48665345      -0.84713268
H        9.17811912      15.52644610       2.85281132      -0.15737783      -0.19401155       0.26095410      -0.00773290       0.70087695       0.99884790
O        8.42477536      17.98994446       3.31570502      -0.29751267      -0.20055088       0.04646594      -1.08090520       0.38830534      -0.05282132
H        9.84089724      17.66089766       4.80382177       0.06659512      -0.15683275      -0.12672135      -0.41082600       0.33465284      -0.17766190
H        8.14968452      17.15977140       5.07926717       0.07042191       0.14180418      -0.18939224       0.25372669      -0.11906505      -0.14616598
C        9.37682389      18.41321579       2.44179995      -0.03719307      -0.33896984       1.05394138       1.63307643       0.27669498      -1.58831012
H       10.24765376      18.92352493       2.91539956      -0.02450838       0.20121043       0.04254614      -0.50673366      -0.18016836       0.04524433
H        8.93207235      19.05219030       1.70032170       0.07437014      -0.19680107       0.44128410      -0.42305651       0.68577862      -0.12462006
H        9.75286775      17.60019276       1.81257762       0.06587617      -0.04334776       0.02596299       0.27704084      -0.35173297       0.17632088
H        9.88898529      14.66724655      17.40890311      -0.16033728       0.24371113       0.15716007       0.13612524      -0.06143431      -1.62557769
C        9.90614846      15.09332474      16.34653377       0.75602273       0.10423924      -0.20428005      -1.66425920      -1.50017941       1.63157272
O        8.52588296      15.28644178      15.99823990      -0.21820903       0.30421893      -0.29617677       0.48035541       0.03838532       0.61425525
H       10.37286624      16.01413119      16.49700184       0.18625023      -0.06732142      -0.04520410       0.98578709       1.80159390      -0.26630712
H       10.44356359      14.48105301      15.61125121       0.14193469      -0.08539742       0.16127150      -0.06269583      -0.01992722       0.30193064
C        8.34412168      16.10798626      14.85598494       0.16760599       0.17309581      -0.51658932       1.26464856      -0.36836883      -0.09364414
C        8.94663340      15.36438624      13.64864476      -0.04463230      -0.87840517      -0.19604067      -0.11565084       1.43525505      -0.45446020
H        8.87863262      17.07920376      14.98464534       0.25669426       0.03642205      -0.11269064      -0.30435818      -0.40222293      -0.09943400
H        7.27638439      16.27612094      14.79526934      -0.22489536      -0.04106191       0.07556129      -0.14322931       0.04231384      -0.33741531
O       10.27959546      15.87306106      13.35842115       0.51002313      -0.73055968       0.43244708      -0.69729072      -1.83433795      -0.28143600
H        8.36188190      15.59075297      12.74050521      -0.29563984      -0.02038253      -0.13704759      -0.16556567      -0.44115293       0.20074311
H        8.90769735      14.28314193      13.89329794      -0.07840435      -0.03711425       0.03193946       0.26815674       0.38634193      -0.32384729
C       11.02273626      14.87131519      12.56879252       0.32779085      -0.54259633      -0.23770285      -0.11715195       1.41443408       1.71375155
H       10.39786483      14.09755409      12.16294816       0.06732987      -0.16749055      -0.05094758      -0.41451925      -0.47066194       0.19047110
H       11.78349396      14.52625079      13.28260985      -0.24795618      -0.18277292      -0.06495582       0.02653131      -0.42641011      -0.66102725
H       11.44720808      15.35850159      11.71667617      -0.19703505      -0.00466918       0.18251521       0.58246207       0.43017566      -0.36792842
H       25.98506104      21.58572508       6.15808473      -0.14088880       0.19844123      -0.15018492      -0.38494733      -0.24303953       0.86524892
C       26.91497245      21.65615025       5.63212258       0.64824246      -0.51462847      -0.26634686      -0.09339090       0.26405296      -0.16190961
O       26.89883212      20.70815505       4.56612743       0.08455846      -0.68137291      -0.56527974       0.41882095       0.38068795       0.30638742
H       26.92340400      22.68348119       5.28002513       0.00606199       0.04859846      -0.09655850       0.09641206       0.34478721      -0.64433497
H        0.53050005      21.59426096       6.29701477      -0.05378390      -0.31089581      -0.06149645      -0.39279345      -0.75629014      -0.40758955
C       25.77527135      20.88460526       3.71112348       0.45008384       0.26095699      -0.92148577      -0.50328273      -0.91675538      -0.09662861
C       26.08566701      20.09874241       2.40955114       1.74166791       0.35321143       0.37629059       0.29862028       1.02185690      -0.24271095
H       25.66383788      21.96443618       3.47231561       0.19118791       0.04702497      -0.18034833      -0.11707262      -0.57033795       0.00952511
H       24.82236472      20.51012059       4.21752990      -0.14123180       0.02280953      -0.06307029       1.06568837       0.43819261      -0.52923912
O       26.70249596      18.80084165       2.61527221       0.61723040      -0.34325129      -0.49485737      -0.62330550       1.79302406       0.12434717
H       26.72106228      20.77171567       1.78309994      -0.04883096      -0.08520642      -0.32073310       0.37349334      -0.72646177       0.80752176
H       25.21354960      19.99299143       1.76642722       0.01799673      -0.03131833       0.27129590      -0.37979665      -0.17039737       0.49565622
C        0.22454936      18.55178520       1.47673893       0.04978016       0.52409013      -0.47809614       0.61712337      -0.25632948      -0.06256153
H        0.64827491      17.55974001       1.53921211      -0.11878954       0.12673689       0.29848485      -0.78797626      -0.61313927      -0.21230084
H        1.13720022      19.13534664       1.46388547       0.16848972       0.19173484      -0.12147897       0.02521179       0.99956453      -0.04738375
H       26.86034005      18.78305327       0.60789389      -0.08332697      -0.35744918      -0.01607349       0.41394037      -0.54493046      -0.35403368
H       10.95240206      11.36827744      24.57463208      -0.07867650       0.06585646      -0.22098700       0.02208396       0.05595249       0.12921092
C       10.61664544      10.59953694      23.88989516      -0.51974086      -0.55222842       0.46575355       1.58340919      -1.12236607      -1.02651250
O       11.80017296      10.14241154      23.13301494      -0.30976598       0.19284581       0.54237568      -0.71216434       0.65291959       1.40215671
H       10.14930878       9.76214891      24.43722345      -0.04857181      -0.12652964       0.05052280       0.04019220       0.32497999      -0.27984822
H        9.96605193      11.02191449      23.14371688       0.18688963       0.03094813      -0.09781690      -0.75452250       0.29893321      -0.07046435
C       11.45836240       9.27560730      22.07276046       0.22275271      -0.48209227       0.19541828      -0.14313552       0.88086492       0.41842073
C       12.66862239       8.73772738      21.40686042       0.24292793       0.68217242      -0.03388284      -0.69245040      -1.83291602      -1.44028878
H       10.94041741       9.85567640      21.28815000      -0.37021567      -0.21983649      -0.06203720      -0.47197750      -0.33127555       0.23325285
H       10.87513392       8.43107033      22.47357870       0.14576232       0.02622230      -0.19402841      -0.20289955       0.18797675      -0.30136570
O       13.20457736       9.65461272      20.49566254       0.13961883       0.21907235      -0.12023775      -0.09955740       1.68620455       0.08926384
H       12.17515344       7.91033410      20.79370456      -0.30988449      -0.00082705      -0.00341085       1.21273136       0.37589687       0.70077944
H       13.37371157       8.35381780      22.15304694      -0.23820203       0.03127244      -0.15898843       0.26328817      -0.03917560      -0.20374502
C       14.25249022       9.25120051      19.64973898      -0.01555382       0.57228572       1.03134232       1.15834951      -0.56082135       1.38259721
H       13.91462100       8.41552176      19.07309275      -0.04966419      -0.00125593       0.13097872       0.08480220      -1.03253686      -0.31479770
H       15.17721272       9.00644964      20.27503015      -0.12244794      -0.02927719      -0.10593543      -0.95381737       0.07070680      -0.93516856
H       14.53695872      10.00570375      18.91652468      -0.28047144       0.09176710      -0.06287961      -0.25220418       0.44881225       0.37375182
H        3.75102629      16.79089925      11.14199456      -0.12424744      -0.02914096      -0.03337668       0.69112158       0.27540165      -0.94519800
C        3.90933098      16.75581569      10.02512406      -0.09565123      -0.68270374       0.20865481      -0.45414424      -1.37782669       1.56656432
O        2.63889744      16.29731733       9.51333321       0.04770056       0.46479185      -0.43576251       1.19908428      -1.45899582      -0.53446078
H        4.01868850      17.73702220       9.63141778       0.05795445      -0.27136758       0.00304068       0.20672435       0.94293225      -0.21311343
H        4.85381084      16.15513361       9.82204498       0.10447730      -0.20668226       0.07206320      -1.41233778       0.22872570      -0.14223069
C        2.24924178      14.95017106       9.91674247      -0.43623562      -0.44420628      -0.20860768      -1.98348832       2.04422712       1.34315884
C        2.78791575      13.76834783       9.21145840      -0.64818091      -0.09890790      -0.08823556       1.40419340      -1.76106608      -0.32368383
H        1.14675960      15.00529507       9.68009646      -0.02906954      -0.06160468       0.04917561       0.93710029      -0.48233566       0.41857290
H        2.31908316      14.93053037      11.05424402       0.08023591      -0.19769850      -0.04626230       0.18806350      -0.39929584      -1.16786909
O        4.17939033      13.50472756       9.56307483      -0.31077836       1.08479391      -0.28907127      -1.16736829       0.80498797      -0.81842488
H        2.65343083      13.83570872       8.10348931      -0.03146998       0.20633592       0.20135094       0.27951917       0.22253819       0.60933506
H        2.28387471      12.80506960       9.46524148       0.01029764      -0.09789910       0.02639401      -0.37304232       0.99704540       0.14731355
C        4.62895722      12.39461459       8.80330075      -1.26225421       0.06752492      -1.15845988       0.46226421      -0.56675339       1.35785520
H        4.43283106      12.53606848       7.75942208       0.00594148       0.09206006      -0.14988956      -0.22803551      -0.00329849      -0.72210634
H        4.19210695      11.41971195       9.15840323      -0.04449285       0.24158980       0.08334756       0.15443195       0.88008279      -0.36009985
H        5.70175082      12.38863521       8.97414546      -0.27696438       0.21802137      -0.17807963       0.15312786      -0.29695317      -0.24878502
H        8.58077202      20.82274838       9.72292965      -0.16949149      -0.12861072       0.15375248      -0.43641397       0.09953983       0.06663673
C        8.62652755      21.86445913      10.05203788      -0.23582073       1.07159219       0.31720663      -0.22892299      -1.09673321      -0.95262349
O        8.73385759      22.64649608       8.90718081      -1.67051104       0.12015744      -0.02458557       1.22705412       0.82695615      -0.39440006
H        7.75159176      22.21995609      10.53567511       0.12670093      -0.25784332      -0.05898247      -1.10379696      -0.23753032       1.07687104
H        9.45100463      21.86859559      10.72894718       0.05722919      -0.04898304      -0.01226919       1.03569019       0.54280883       0.48923698
C        9.00609683      23.98946061       9.26835322       0.33470236       0.54964292       0.23284255      -0.19221570      -0.18715458      -1.21889448
C        8.97693975      24.83837564       7.99130550       1.05209286      -0.60990432       0.01265326      -1.34819353      -2.07527971       0.60899264
H        9.96790084      24.09021064       9.83506177       0.09395994      -0.09377605      -0.39138366      -0.74775720      -0.12492020      -0.40751427
H        8.17330428      24.34055358       9.84249867       0.32658112       0.13980191      -0.03261418      -0.52308947       0.35484073       1.05116594
O        7.65031448      24.80320827       7.37783030      -0.52959956       0.07946944       0.38627365       1.43764138       0.32982451      -1.01030529
H        9.64743104      24.35028025       7.30792343       0.39438145       0.17479290      -0.16650008       0.65314364       0.23282705      -0.41440365
H        9.26232165      25.81751881       8.28594509       0.21156954      -0.10044628      -0.14737162       0.33580241       1.26618576      -0.30284911
C        7.90985825      24.91942260       5.92864517      -0.20802167      -0.46094830       0.03828875      -0.95646554       1.63411903       0.98369533
H        8.52944983      25.83488509       5.75307258       0.01004922      -0.10161932      -0.27733586      -0.52145326      -0.63369459      -0.04495299
H        6.96431185      25.00771188       5.34669636      -0.13461172      -0.26386914      -0.16417019       0.55131602       0.06525356       0.76655513
H        8.44114509      24.06080875       5.60035131      -0.09739042       0.27969531       0.11318506       0.57677990      -0.92059481      -0.33866608
H        0.21357608      21.20281690      10.14212974       0.34827754      -0.14726184       0.22075600       0.02550367      -0.07796883       1.18161082
C        0.75630341      21.91669520      10.80686583       0.42542868       0.24669784       0.67434375       0.75274789       0.02454433      -1.06709647
O        2.07450976      22.05586124      10.20976185       0.39301091      -1.05632477       0.78341302      -1.03791797       0.16737320       0.09325203
H        0.17570486      22.83274150      10.77379267      -0.19053655       0.06451218       0.08000933       0.01500855       0.54703552      -0.25481132
H        0.89276953      21.71119784      11.87678647      -0.15921933      -0.04420094      -0.10874350      -0.12914360      -0.62243772      -0.65687031
C        2.00945853      22.01166814       8.79723170       0.63288690       0.92518186       0.51380327       0.54091990       0.04881767      -0.01680377
C        3.40152729      21.93283347       8.22315521       0.81694811       0.10395839      -0.01783384       1.23915064      -0.48873276      -0.39648268
H        1.45998625      22.83485107       8.32332603      -0.36486678      -0.05768308       0.20333203       0.18104202       0.53835654       0.35835227
H        1.46377749      21.15952245       8.41447863      -0.03781837       0.19555362      -0.11946796      -0.29783273      -0.80235004       0.31358659
O        4.12848486      20.73014084       8.57449294      -0.81471813       1.07152614      -0.37433997      -1.60360920      -0.30038044      -0.83320397
H        4.04092982      22.78644828       8.48974195      -0.31663126       0.11898065      -0.01125516      -0.33416939      -0.06205689       0.03931322
H        3.32480852      21.93778686       7.11677835       0.05447001       0.10152736      -0.04601863      -0.06543666      -0.09211557       0.45974687
C        5.10457568      20.89568302       9.56378109      -0.26318833      -0.37446415       0.43195327       0.51379502       1.76762486      -0.61350656
H        4.74712393      21.65073373      10.24916559      -0.24117939      -0.34714837       0.15278917      -0.15317217      -0.37685406       1.09239399
H        5.94321966      21.42740037       9.09246891       0.09594772      -0.04218151      -0.11348981       0.50887293      -0.44341683       0.03471249
H        5.42436105      19.95363986      10.00105161       0.13543626      -0.20555715      -0.16121112      -0.30549562       0.05489302       0.10765970
H       16.70728728       2.51258417      21.67506601      -0.28331783       0.06600637      -0.13207230      -1.13776886       0.18089695      -0.15833254
C       15.59850469       2.26963721      21.64001588      -0.22626453       0.30925413       1.37802472       0.37858215      -0.34317312       0.73295033
O       14.70701765       3.35415887      21.71483443      -0.27464058       0.54071676       0.29577358      -0.55812061       0.40213051      -0.37074339
H       15.38251149       1.72194972      20.71392860       0.16410166       0.11098238      -0.00751291       0.22362342      -0.39699584       0.23377778
H       15.38890669       1.66607091      22.57857524       0.05078549      -0.12106307       0.06901353       0.23075213       0.41025943      -1.30704260
C       14.53653537       4.16585544      20.55960297      -0.04874760      -0.34228873       0.00660596       0.30872193       2.05877829      -0.56180161
C       15.81701644       5.01393013      20.28989391       0.17126098       0.40972681      -1.01431474      -1.51021206      -0.47433364       1.34916437
H       13.67059367       4.87197867      20.71814049       0.07040576      -0.22906249       0.27634495       0.80168980      -0.89576471       0.38741007
H       14.33171088       3.70287844      19.57010978       0.23200456       0.10361174      -0.07953365      -0.05065601      -0.66804868       0.75037265
O       16.23929980       5.57215242      21.49173519       0.73559073      -0.34863829       1.09799923       1.72036576       2.06116962       1.01840961
H       15.66033731       5.83014638      19.61002540      -0.20533488      -0.13720280       0.07559585      -0.23029071      -0.06539214      -1.04885066
H       16.53336865       4.29939068      19.99923579      -0.08747795       0.01345739      -0.00204180       1.28979349      -0.69944775      -1.14020145
C       17.42926218       6.43835797      21.31656469      -0.26768932       0.20441371       0.03746223      -1.74700820       0.75589776      -0.77902281
H       17.57132548       6.85582988      20.28764745       0.06724403      -0.07234141       0.07318972      -0.42556906      -0.75447351       0.43292683
H       18.29869817       5.93748671      21.60682242      -0.01184118      -0.17142510      -0.05354556       1.45738482      -1.32532966       0.22574988
H       17.43828057       7.34895970      21.92116573      -0.32590559       0.36772949       0.04897429      -0.85910732      -0.24795142       0.32728714
H        0.40591025      11.35064464      21.69007126       0.14478034      -0.09036609      -0.07629458       0.21091260       0.17173229       0.18885832
C        1.46945988      11.28165262      21.41417737      -0.32404289       0.09473944      -1.04613259      -1.39988577      -0.29890618      -0.75052041
O        2.03422108      12.54188843      21.47698678       0.38858445       0.12221601       0.16061342       0.60521978       0.77176523      -0.20741774
H        1.92381780      10.55296146      22.05797230      -0.22005854       0.00765186       0.04289169       0.52364910      -0.34552655       0.51034683
H        1.42520175      10.88324090      20.38894344       0.13669583       0.13920804      -0.34623761       0.30758160       0.02353582       0.04057173
C        3.40967892      12.59140783      21.83428387       0.74053650      -0.34692797      -1.16361185      -0.54284310      -0.60208696       0.86865342
C        3.75560071      13.95981241      22.33979232       0.37506609       0.11710500      -0.08135089       0.52916574      -0.28292784      -2.39884281
H        4.11194985      12.29802997      21.04055789       0.26348284       0.13611693      -0.08383287      -0.31426927       0.11111040      -0.25709522
H        3.56769436      11.90087165      22.66989701       0.54446038       0.02816874      -0.11066015      -0.02568145      -0.15788032       0.02232947
O        4.02457012      14.75244563      21.15866147       0.50675178       0.79580750      -0.45012917       0.55690157      -1.38807476       0.36564869
H        4.60393051      13.80189623      22.99110099       0.05369395      -0.27484691      -0.17584289       0.51580119       0.66804481       0.35346201
H        2.92344387      14.40701285      22.81050915       0.11467432      -0.12396673      -0.14508945      -0.89356625       0.34059417       1.07355893
C        4.10840164      16.10763817      21.38518383       0.10879889      -0.36170953       0.39706711       0.26171651       1.25017023      -0.29686144
H        3.25880406      16.41283808      21.98921854      -0.14674260      -0.14766625      -0.06151770      -0.30398598       0.42266101       0.27613261
H        4.03909212      16.61629751      20.40218848      -0.02534666       0.16391207       0.19008905       0.14222631      -0.15826160       0.55032462
H        5.03853443      16.46077453      21.88872414      -0.19330473       0.10053666       0.12235128      -0.36557311      -0.38025278      -0.23735550
H       18.88249212      28.11834323       0.01733989      -0.11702386       0.48088306      -0.13706236       0.10430921      -0.07981953       0.04465192
C       19.36709962      28.19634689       0.98827443      -0.26652130      -0.10482364       0.30549767       1.21793485      -0.98207676       0.80417216
O       20.80206480      28.05868920       0.82637140      -0.45641246       0.42528111       0.03089590      -0.24505129       0.39909461       0.89230901
H       19.19397938       0.19070471       1.45198932      -0.08024575      -0.28805879      -0.04574852      -0.51335061       1.17365706       0.10889376
H       18.99249512      27.44972790       1.71566189       0.07073844      -0.04953164       0.09078128       0.00665394       0.00356086      -0.61317843
C       21.54451476      28.13310203       2.09338789      -1.26617624       0.65569854       0.13144744      -0.70256120      -2.36991167      -1.86171663
C       22.06736255      26.70755032       2.35833494       0.46861855      -0.24873354      -0.28183945       0.50163388       0.18549281       1.26997364
H       20.92052031      28.44918607       2.89718560      -0.00718359       0.04474115      -0.04924988      -0.72086823       0.22970249       0.67879772
H       22.33690499      28.83093158       1.98534865      -0.15268009      -0.01352801      -0.04658544       0.88531399       0.68477696      -0.28981692
O       20.98022747      25.86680623       2.84347935      -0.33120575       0.53765068      -0.06113304       1.04373753      -0.56902641      -1.39734626
H       22.94004490      26.73096425       3.11120497       0.09136414      -0.01028716      -0.06536503      -1.36895585      -0.12699522      -0.79434955
H       22.47382357      26.24572559       1.43963796       0.00822993      -0.04408724       0.06778932      -0.10557368       0.58132893       0.26581752
C       20.68220411      24.86818778       1.80111479       0.98185348      -0.64061465      -0.37376690      -0.77068996       0.82103032       0.56352878
H       21.58479161      24.33648409       1.47326002       0.00101747       0.16479259      -0.23184198      -0.08201105       0.58749759      -0.36440825
H       20.08912465      25.41368044       1.00360280      -0.08152685      -0.21923818       0.15316425       0.95324230      -0.98901874       0.46571109
H       20.08533996      24.05457953       2.22648180       0.07362070      -0.05138858      -0.13221108      -0.20060802       0.44783306       0.16167857
H       18.16647696      15.36588690       2.86508288      -0.01486236       0.12484331       0.12265856       0.04093381      -0.52504289       1.47273064
C       18.26215698      15.08253017       3.95752806      -0.26954469      -0.14454709      -1.34181059      -0.40939739       1.39232934       0.26786920
O       19.19194141      14.06638593       4.16587917      -0.29090328      -0.00014872      -0.01764542      -0.34617284      -1.44424689      -0.68006164
H       18.62217496      15.91894265       4.53488502       0.17128591       0.27159055       0.17781646       0.46997386       1.09871376      -0.40258989
H       17.30615338      15.01728785       4.50724090      -0.18876667       0.19023305      -0.01533657      -0.25617617      -1.05054247      -0.82055110
C       18.93876101      13.19928045       5.28656214      -0.58680502       0.65647046       0.22943619       0.59594899      -0.26192424      -1.19016886
C       20.24276456      12.31954003       5.21504103      -0.41827201      -1.06029070      -0.93803164      -2.41290069      -0.10408462       0.92261708
H       18.00924926      12.60420039       5.20818672       0.12480787      -0.05968817       0.11040406       0.41019225      -0.03057173      -0.37260008
H       18.76748091      13.89262994       6.06682107       0.12035363      -0.04909545      -0.00304534       0.36811638       0.30269852       1.75533855
O       20.16393261      11.15005985       6.08339886      -0.35815258      -1.10927435       0.00899401      -1.22332847       1.25591743      -1.19588006
H       21.06770070      12.97446610       5.52033872      -0.09755223      -0.21815710       0.11376863       0.25724030      -0.42231545      -0.50732529
H       20.10342842      12.10109520       4.12769836      -0.00208214      -0.09629498       0.22583702       1.36673439      -0.42731586       0.69453412
C       21.31286453      10.37234375       6.05173428       0.23408081      -1.24210542       0.14116862       1.88533068       1.09030426      -0.00507317
H       22.15972517      11.05957404       6.26171724       0.22587063      -0.31349282      -0.10498008       0.07791973      -0.51857513       0.21269871
H       21.59196179       9.92377587       5.09870442       0.04321570      -0.05780567       0.10949634      -0.54741043      -0.11272061      -0.40593082
H       21.28653286       9.60061462       6.80197026       0.42317293      -0.20308707      -0.05669352      -0.27867585      -0.22856881       0.32538602
H       16.94058099      13.30019814       9.49072056      -0.08690980      -0.21472541      -0.03657373      -0.43962696      -0.45686379      -0.33878002
C       17.33283495      14.07488923       8.83148108      -0.53820752      -0.90932146       0.64188430      -0.33054650       0.63864607       1.67117119
O       18.53738412      14.49633931       9.39232109      -0.54714247      -0.50957100       0.76001181       0.91585416       1.04378700       0.84808415
H       17.51180820      13.76222773       7.85011949      -0.07081748      -0.00995948       0.18503494      -0.13136770      -0.90889055      -1.69281483
H       16.63760069      14.91156208       8.83348860      -0.07669888      -0.39890427      -0.22901761      -0.00019232       0.10994768      -0.06165735
C       19.46278974      13.44000800       9.45395760       0.40327229      -1.19920614      -0.22110202       0.82381803      -0.12617442       0.18946229
C       20.74375926      13.67601684      10.31075999       0.29433191       0.40338482      -0.53347555      -0.94169521       0.06742933      -1.12546980
H       19.82058137      13.22909591       8.45748440      -0.16111982      -0.03132608      -0.06442729       0.21553023      -0.24036759      -0.69481385
H       18.95540960      12.52423056       9.77627057       0.10926535      -0.08227016      -0.26477823      -0.08549456      -0.00064050       0.33315346
O       21.84496375      14.18376306       9.56102120       0.02784255      -0.64619967       0.42457399       0.45069787       0.67762417       0.06348054
H       20.99527498      12.69702444      10.70900964       0.04537577      -0.01264838      -0.17217440       0.57955414      -0.13831471      -0.24666798
H       20.50449724      14.25046214      11.18469068      -0.02909303      -0.25755147      -0.03748840      -0.05477235       0.82220912       0.53789008
C       21.84525004      15.63125851       9.29905120      -1.32098818      -1.10400893       0.65728436      -0.48108670      -1.07418144       2.34448624