2310
Lattice="27.22964459587974 0.0 0.0 0.0 27.990266496001272 0.0 0.0 0.0 27.551180969471325" Properties=species:S:1:pos:R:3:momenta:R:3:forces:R:3 Origin="-14.15305 -14.15305 -14.15305" charge=0 spin=1 energy=-1359649.9745779885 stress="-0.0007163181435316801 -0.0003554523573257029 -0.0006998981698416173 -0.0003554523573257029 0.0011457034852355719 7.313090918614762e-06 -0.0006998981698416173 7.313090918614762e-06 -0.0013058180920779705" free_energy=-1359649.9745779885 pbc="T T T"
H       19.39428460       2.30903836       6.45700203      -0.17543661       0.08276743       0.11167010      -0.06275129      -0.28694996      -0.03816302
C       20.03060155       1.76527212       5.75118532      -0.26432404       0.11737166       0.18567800       0.29267055       1.82868028      -0.98684663
O       20.59682731       2.75607274       4.81690562       0.88183336      -0.50674575      -0.63460584      -1.27252758      -2.46459937      -0.35770169
H       20.84331309       1.29183660       6.28231929       0.01643005      -0.07743545       0.16839624       0.25516403      -0.38031819       0.21856378
H       19.46720599       1.05783776       5.15752383      -0.19820762      -0.14219550      -0.02642142      -0.05567781      -0.09615298       0.01488295
C       21.39721522       3.65320364       5.45396414       0.29651384       0.43696749      -0.63535868      -0.71299481       2.28837276       1.47070265
C       20.64008787       5.00962647       5.71178349       0.29659763      -0.13912691       0.49671927       0.61902601      -1.98453093      -0.63260120
H       22.26533028       3.89985013       4.86959869       0.12205897      -0.13466293      -0.15891641       0.55830812      -0.12028813      -0.39756098
H       21.69690761       3.24944152       6.42463189       0.01151169      -0.06587462      -0.17339831       0.35723540       0.16263033       0.21775913
O       20.55270871       5.61588802       4.42589875       0.45467689      -0.80944735       0.92299818      -0.41024530       1.28904223       0.23992500
H       19.63570689       4.74838712       6.05866950      -0.16715798       0.05052384       0.16616307      -0.02585050       0.30503061       0.30776441
H       21.23515086       5.52708448       6.47478291       0.21400697      -0.18928786       0.17713055      -0.36030617       0.56293851      -0.21338391
C       19.68035180       6.77858995       4.39747639       0.76396471       0.35579843      -0.83548751       1.97124243      -0.05387691      -0.17956863
C       20.26403945       8.05463977       5.06637774       0.58524171       1.37231021      -0.80721992      -0.00997300      -0.87822181      -0.81753916
H       19.46040218       7.00862328       3.34542993      -0.01354637      -0.15221614      -0.20787734       0.36290330      -0.06398121       0.13676834
H       18.74821825       6.54128565       4.82682589       0.02669562       0.14798347      -0.25635589      -1.16304314      -0.43719447       0.94635159
O       20.79026850       8.94170094       4.08424239      -0.43364253       0.01041647       0.38015163       0.14649153       0.38439062       0.69401884
H       19.42886455       8.57353788       5.47132671      -0.02593716       0.10460701      -0.07486576      -0.66520226       0.54908985       0.42286903
H       20.91850377       7.85332576       5.93640522       0.17187747      -0.09311397       0.11158510       0.20863123      -0.10339686      -0.59757042
C       21.95003557       8.52674780       3.42480797       0.24120842      -0.03142201      -0.30724089      -0.96858484      -2.40370584      -1.59767497
C       22.07594410       9.15491090       2.06633246      -0.00455450      -0.13256995       0.31706424      -0.41987148       0.43426493      -0.24708717
H       22.84912286       8.62724328       3.94236954       0.02802774       0.10236880      -0.02448862       1.52762341       0.93551278       1.53525865
H       21.96637105       7.40295238       3.26954736       0.14371862      -0.03188716      -0.17455769      -0.45304132       0.94005340      -0.08519080
O       21.92349997      10.56958508       2.15260211      -0.17472941      -0.49734103       0.32302689       0.85290366       0.22752951      -0.26862755
H       23.00165123       8.82357175       1.61085448       0.00510548      -0.45807591      -0.10982739       0.69792056       0.17683627       0.10325701
H       21.34840070       8.81555515       1.34722153       0.11275247       0.06152091      -0.15149942      -0.79302138      -0.49047643      -0.13953060
C       22.26295661      11.25549655       0.92710846       0.39635453      -0.00180611      -0.53637986       0.30312368      -0.13644885       0.64086097
C       23.81411363      11.45206512       0.79918231       0.30079324       0.55818024       0.28633099      -0.73490846       0.26104009      -1.43945622
H       21.83739307      10.70800038       0.08293388       0.25925265      -0.24413724      -0.08130410       0.06095753       0.01029589      -0.08610479
H       21.75627646      12.22363339       1.02030049       0.11093361      -0.00993808      -0.20868546       0.34808388      -0.04132502      -0.26784539
O       24.15849739      12.49275799      27.38792550      -0.13130406       0.23733152      -0.12807764      -0.25296554      -0.81939048       1.88894022
H       24.14541907      11.82991635       1.74192482      -0.43060668      -0.14120757       0.02546977       0.44558364       0.00862546       0.68956262
H       24.33514102      10.50669749       0.49061251      -0.09694880      -0.04531164       0.06399152      -0.36714360       0.62723476       0.47055185
C       24.02528628      12.00780136      26.08859855       0.12158823       0.42185365       0.56637177      -1.86501050      -1.17499185       0.75296372
H       24.09770507      12.84991169      25.48775960       0.12242904      -0.16864872       0.00752080       0.28525451       1.43268132      -1.54516149
H       22.98973851      11.56742791      25.97013624      -0.18584640      -0.11090110      -0.22031667       1.13049746       0.12426298      -0.24688154
H       24.80096467      11.29545655      25.87211330      -0.15830214      -0.12515720      -0.03593003       0.35185638      -0.58994615      -0.32734156
H       16.81141039      13.33270649      16.46099988       0.02093729       0.17257005       0.41231328      -1.37845969       0.60685611       0.70477599
C       17.70716058      13.09426782      15.95333420       0.58658365      -0.56138957      -0.70542460      -0.73862511       0.02579578      -1.28091025
O       18.21166367      14.24002339      15.28428827      -0.50020547       0.35203987      -1.44804858      -0.16938788      -1.10520864      -0.43165365
H       18.34018817      12.70612055      16.71659511      -0.17057017       0.28582184       0.00782101       1.17404258      -0.48056632       0.33075762
H       17.36209237      12.31687206      15.22885020      -0.15519233      -0.12870572       0.06992083       0.86869633       0.54991293       0.26914689
C       18.39066257      15.35211187      16.12125265      -0.02849017       0.24514241      -1.36120666      -0.14584276      -0.45664805      -0.18836479
C       19.22605417      16.32517588      15.38605353       0.46998013       0.61636094       0.18066433       0.42102283       1.38944030      -0.15110280
H       18.92193995      15.04437075      17.00392288       0.14516569       0.03768239      -0.31117464       0.32751444      -0.14833882       0.78795296
H       17.43414718      15.78269249      16.40873314      -0.17982861      -0.02411933       0.27105823      -0.32403255       0.19282898       0.05744393
O       20.55142096      15.82076651      15.31153501      -0.19474367       0.52067669       0.40966542      -0.78333610      -0.79280764      -0.79199445
H       18.76866609      16.58249019      14.41672789       0.06768612       0.13345496       0.11905501       0.34750885      -0.35660541      -0.02725571
H       19.27600768      17.29021803      15.91713073      -0.15257037       0.06182003       0.09272906      -0.23793229      -0.14357553       0.09849712
C       21.52117190      16.76922850      15.05675013       0.34510444       0.47149495      -0.99403491       2.11507249       1.00781488       0.61431593
C       21.77712688      17.32526325      13.62436249       0.13888065       0.05843317       0.27638764      -2.06229973      -0.18363552       0.58697802
H       21.40346030      17.57579052      15.81729307       0.02049952       0.13025885       0.22600506       0.10744266       0.08303276      -0.90429014
H       22.52457030      16.31528427      15.33396769      -0.09798176       0.00033234       0.17442484      -1.01705337       0.14320774      -0.35288265
O       20.66391538      18.17790491      13.20657987      -0.18496221      -0.98688442      -0.12915730       0.11922335      -0.43635273       0.35072058
H       22.71410503      17.88830167      13.72749671       0.18557637       0.05484381      -0.17927062      -0.05348428      -0.29467785      -0.51898986
H       21.77930511      16.46140282      12.93979972       0.01255639       0.09096504      -0.17391838       0.60730755       0.29117382       0.04216782
C       20.50579371      18.46550822      11.79080401       0.33813280      -0.67302789      -0.51473318       0.79125321       1.73908126       2.89980483
C       21.72311986      19.33795564      11.45654787       0.07580078       0.01665002       0.38081045      -0.31569675      -1.05224097      -1.37510812
H       20.29050944      17.59615423      11.25302456      -0.12042697       0.29218718      -0.09770115       0.37188315      -1.55685103      -1.20755482
H       19.56839964      19.03307469      11.77298538      -0.00431127       0.35181597       0.11247354       0.25867930       0.12882130      -0.25747532
O       21.73050126      19.56124876      10.05517937       0.01112765       0.24626614      -1.59729260      -0.64682722      -0.12700915       0.03575506
H       21.66741560      20.22883701      12.06522782      -0.00652797       0.02566944       0.02580814      -0.05976915       0.63659126       0.06705794
H       22.66769810      18.84322483      11.71520800       0.01605990      -0.06204643      -0.06032097      -0.09498029      -0.20067084       0.15741986
C       22.92450024      20.10911552       9.52714484       0.23287727      -0.71031474      -0.36533500      -0.45328340       0.55387014       1.20282972
C       22.98532689      21.61213718       9.76714683       0.33498813      -0.52637857       0.52800753      -0.25444028       0.57076949       0.08056621
H       23.75353687      19.65197067      10.10467311       0.17036816      -0.35740790      -0.14471054       0.14198215       0.08016344      -0.89659709
H       22.88622368      19.92848107       8.46503193      -0.16441862      -0.09689299      -0.28886000       0.43524635      -0.45268306      -0.29868034
O       23.88479253      21.85673016      10.84496490      -0.93578881      -0.28590266       0.61341930      -0.46271840       0.15663764      -0.26967674
H       23.31312728      22.15256546       8.84199339       0.13205514       0.19652536       0.17920722      -0.14490995      -0.23455268       0.61116201
H       21.96480190      22.01498174      10.06544672      -0.26968416      -0.04144811      -0.05373146       0.88570720      -0.46541050      -0.49905452
C       23.94264916      23.23174629      11.12299182      -0.07798841       0.90255404       0.10440961      -0.62514073       0.93175638       1.16050184
H       22.93974660      23.75331143      11.03831192      -0.21422101       0.37144149       0.06731587       0.97372341      -0.67117649       0.14154248
H       24.65689379      23.76130395      10.52391550      -0.04559735      -0.01909042      -0.16082056       0.36345467       0.23687820      -1.03173149
H       24.36609135      23.39992269      12.12333831       0.25318135       0.02286144      -0.15921111      -0.44609559      -0.37119105       0.04546696
H       15.17668282       0.68875690      19.52242122      -0.16240566      -0.02495144       0.25208131      -0.26302963      -0.51418668       0.15644225
C       15.25206106       1.68755594      19.92152447      -0.15221676      -0.95811908      -0.00524194       1.05988431       1.39626658      -1.49555326
O       14.32442779       2.02255629      20.90834152      -0.42136952      -0.40916731      -1.06836951      -0.13804702      -0.07038212       0.45696324
H       16.26234970       1.85421586      20.31261269       0.11586008      -0.04810398       0.26253850      -0.23159921      -0.30592439      -0.08323059
H       15.16581525       2.35958150      19.01504970       0.26616206       0.19800371      -0.00115744      -0.08660999      -0.44728521       0.86276352
C       13.14094345       2.50654861      20.35180057      -0.82809558      -0.47670627       0.43584450      -1.93625355      -0.44378185       0.43459392
C       12.05252383       2.80304272      21.41098923       0.15021505      -1.16292050       0.42999515      -1.00808489      -2.21260118      -0.22027604
H       12.68700258       1.78131983      19.60893975       0.02097876      -0.14143008       0.12471505       0.47151643       0.55566698       0.66033751
H       13.27825089       3.44993917      19.83659614      -0.03021427       0.14931249      -0.03313358       0.44070318       0.41412660      -0.39020053
O       11.20624531       1.61587852      21.73306323      -0.73750361       1.40682007      -0.14957545       1.06935382       1.36643052      -0.18242998
H       12.39573203       3.31865898      22.32982084       0.30973426      -0.18927618      -0.22988073      -0.00301157      -0.32104224      -0.51540118
H       11.24915140       3.32568490      20.91357285       0.16896057      -0.07480649       0.02828468       0.27402332       1.01917195      -0.15253931
C       11.73765171       0.67044961      22.62809305      -0.47473087       0.47827345      -0.71745911       0.80435997       0.17690690      -0.92635006
C       10.55801450      27.86941291      23.07608519      -0.18863519       1.25019993      -0.14743796      -0.18310437      -0.49906504       1.17424238
H       12.41217322       0.01198150      22.11929552      -0.01319266      -0.10287138       0.05159437       0.66804034      -0.55314785      -0.58033848
H       12.37299788       1.15358322      23.37310074      -0.07443717       0.12276297      -0.01513001      -0.42273131       0.03208453       0.68585902
O       10.81642933      26.99062571      24.16002643      -0.27229527      -0.41058246       0.11476142       0.22424816       0.58865625       0.55277878
H        9.83535111       0.61082889      23.36089413       0.26662425      -0.06286124       0.11520139      -1.01735580       0.64561093       0.42026177
H       10.09054571      27.28819941      22.28313240      -0.28840523      -0.16974061       0.05148137       0.37356946      -0.09414493      -0.26951817
C       10.81765258      27.68567551      25.44431575       0.47713082      -0.39921502       0.56757744      -1.86615670      -0.59470165      -1.87209582
C       10.93717408      26.65631342      26.48467182      -0.44270994      -0.71097640      -0.08550415      -0.17507437      -1.66124594      -2.15491724
H       11.60357890       0.38233280      25.52414603       0.00071233      -0.00153017       0.16583802       1.51630950       1.01594794      -0.06857056
H        9.88553421       0.29170991      25.47445563       0.05618214      -0.19296036       0.32711926       0.25832799      -0.43643501       0.30766100
O        9.70940929      25.96983048      26.69485847      -0.43602429       1.04780538       0.14682513       0.12442190      -0.79321164       0.64331281
H       11.77152181      25.97606362      26.12489145       0.10519251       0.06426110      -0.05748548      -0.89150375       0.22676285       0.43665588
H       11.22786781      27.01972810      27.39560200      -0.09757177       0.12521649       0.03456346       1.02030671       1.51059282       2.25592804
C        9.88988168      25.26409170       0.39394745       0.21625380      -0.02937154      -0.85198407      -1.39241660       0.07531583      -0.12305839
C        9.05019436      23.93643359       0.48907018      -0.14836180       0.63459057      -0.76338708       0.47730759       1.44541109       0.54063821
H       10.94386125      25.09547726       0.43482158      -0.01640934      -0.08536226       0.00309550       0.77625543      -0.76084721       0.48939294
H        9.64857893      25.95497392       1.25736302      -0.15180184       0.12839818      -0.03223863      -0.07371413      -0.73074269      -0.73846012
O        8.38375721      23.92794388       1.75397141       0.53336371       0.96940985      -0.03235397       0.89225876       0.87602770      -0.56557322
H        8.25360589      23.87386245      27.31061743      -0.33489668       0.13230896      -0.05484013       0.04287387       0.37336090      -0.79270810
H        9.67085273      23.04038462       0.36353997       0.05226068      -0.16954080      -0.07818529       0.10982540       0.10173755       0.15984915
C        7.52449781      22.86522088       1.77272984       0.51809481      -0.81235211      -0.53188032      -1.28628230      -2.43223047       2.17412710
H        7.04307466      22.60127786       0.83703748      -0.12260832       0.29031601      -0.02352875      -0.50250483       0.62969130      -0.43755648
H        6.76770331      22.87981091       2.62772475      -0.15158167       0.23486268      -0.22206317       0.82242811       0.59183609      -1.21851957
H        8.06958268      21.94638154       1.99230382       0.01064848      -0.05187327      -0.16835212       0.27492219      -0.25232497       0.07848365
H        2.76603722      17.75500901       5.98073720       0.12183558       0.05270558       0.02555635       0.10228368       0.24527618      -0.03459149
C        2.14982097      18.14192856       5.16436006       0.92946730      -0.03180332       1.10202256       0.03864076      -0.07421982      -0.84642804
O        1.38106338      17.06266466       4.62692332       0.58093192      -0.00639323      -0.36132292       0.23449978       0.28314105      -0.22003467
H        1.43462241      18.90055170       5.52404844       0.09123675       0.09411300       0.16458182       0.34046334      -0.31485888      -0.06259327
H        2.83158381      18.62168874       4.40568235       0.04863038       0.25168797       0.04570998      -0.62004262      -0.53473520       0.55867684
C        2.17154780      15.91471616       4.32558676       0.22564123       0.12693534       0.58026467       0.01431468      -0.61681908       1.76706183
C        1.28083629      14.79936756       3.83940153       0.23674615       0.50444842       0.52196557      -0.17131157      -0.51415062      -1.74403679
H        2.65667131      15.56411007       5.30966991      -0.06992163       0.17981600       0.26179956      -0.21645710       0.39476940      -1.34637535
H        2.90586308      16.13741341       3.56119262      -0.00967929      -0.15927302      -0.04000278       0.43434533       0.15833919       0.13961625
O        0.82464031      15.16507856       2.51640784      -0.21948492       0.28808241      -0.10070778      -0.01197468      -0.89649636      -0.39270252
H        1.74708222      13.76176819       3.80750189      -0.08638110      -0.16993650      -0.12848873      -0.00837951       1.26111531       0.10424032
H        0.40064060      14.72019814       4.41887472       0.28642627      -0.03326398       0.01818781      -0.71485019      -0.13517867       1.09794664
C       27.21363239      14.19742326       1.85504533       1.14202786       0.67760496      -0.48626936       0.45278805       0.41349518       0.04497918
C        0.03716120      14.39512091       0.33494691       1.01426998       0.21516019      -0.08764872      -1.51534104       0.77286571       1.32926321
H        0.22377686      13.15164227       2.09757855      -0.14703373      -0.16148635       0.05900367       0.33919805       0.22542232       0.33895618
H       26.13797025      14.32631160       2.10350663      -0.15489816       0.04945705      -0.16948034       0.40846851       0.10291440       0.17455675
O        1.30047372      14.33294788      27.24761124       0.72796715      -0.07552181       0.06200917      -1.46434116      -2.02845836       0.75678790
H       26.49036257      13.67500798       0.01741862       0.12931024      -0.08927981       0.06001800       0.65053833      -0.13701309      -0.71266925
H       26.76680412      15.34349254       0.18648477       0.39817122      -0.14508730       0.02923854       0.44255129       0.69114780      -0.49335700
C        1.54366122      12.92140676      27.22364277       0.26648566       0.08679425       0.13659990       2.60316539      -0.46493548       1.29032779
C        2.75484025      12.62320837      26.43089604       0.04412409       1.22091824      -0.63291517       1.21207774       1.01071489      -0.91484684
H        1.72387265      12.40552799       0.70119715       0.10226836      -0.42077584      -0.06352180      -0.37253940       1.33592069      -1.19780242
H        0.80875827      12.33491577      26.75839790       0.05883625      -0.13622123       0.30259960      -1.80409372      -0.13305226      -0.68485451
O        3.93862024      12.84425763      27.15732760      -0.04688969       0.30563879      -0.19932337       0.62912607      -0.01766656       0.87195873
H        2.74820193      11.62502129      26.03460163      -0.04925199      -0.01816988       0.00499533      -0.17093210      -0.80391473       0.05405175
H        2.85791931      13.26597301      25.54122856       0.31433695       0.25305944      -0.34152010      -0.72231567       0.09254973      -0.07801774
C        5.06256526      12.76152329      26.31386460      -0.29629873      -0.20275760      -0.18461138      -1.12251508       1.27529430      -0.76346874
C        6.31620830      12.47026071      27.07789867      -0.38301797       0.00311628       1.15774378      -0.02475493       1.03216445      -0.54787546
H        4.87991241      12.02052155      25.54989107      -0.26966339      -0.25535905       0.01758304       0.16903546      -0.99826902      -0.06982186
H        5.11552693      13.68023435      25.64145841      -0.04323857      -0.02578793      -0.09435617       0.30503854      -0.37874705       1.00325894
O        7.21407857      12.04627516      26.08153970       0.27600853      -0.13576764      -0.81265643       0.00913902       0.48502779      -0.51102889
H        6.69956688      13.35881715       0.06451869      -0.26730539       0.18441873       0.37335630      -0.05868858      -0.18679871      -0.25108543
H        6.18912494      11.68966798       0.25945027       0.18418374       0.04678700       0.02983614      -0.43542877      -0.50487238       0.34891561
C        8.25601827      11.37107620      26.69032465       0.44532635       0.33046561       0.53993434       0.53727806      -0.24526043       0.32985154
H        7.83341293      10.55750876      27.23401201      -0.27746118       0.23610344       0.04926261      -0.29907191      -0.96445823       0.91387719
H        8.76322930      12.01199036      27.42997185      -0.24369051      -0.11897693       0.24440328       0.40576020      -0.21351786      -0.53407305
H        8.87888841      10.87231685      25.95218104       0.00025857      -0.11730328       0.06939537       0.42481390       0.56848770      -0.21101119
H        9.18776293      19.21471265      13.89699852      -0.20921622      -0.01819665      -0.08399498      -0.57799321       0.16554759       0.29575822
C        9.79326070      18.69975871      13.17805638       0.51680125       0.13708976       0.03806836      -0.20643565      -0.47446653      -1.63844132
O       10.67888166      17.80768673      13.77478587      -0.98099701       1.12801787       0.51212511       0.85412824      -0.79963851       0.98725903
H        9.18692296      18.11963544      12.41827578      -0.12188464       0.03144972      -0.22056944       0.11632300       0.72867787       0.68025005
H       10.38701573      19.44049409      12.64661549      -0.03766626       0.08950298      -0.08162661       0.06508078       0.02199170      -0.10352557
C       10.07541462      17.01659139      14.80274729      -0.67490964       0.44141617      -0.94497083      -1.20338404       1.54284728      -1.17895913
C        9.77733393      17.76994492      16.08673982      -1.15385810      -0.38094545       0.37550167       0.80415553      -0.77068889       0.50762033
H       10.69951103      16.19448686      15.01216007      -0.21580733      -0.13482235      -0.03953356       1.26317751      -0.83062392       0.38426509
H        9.17390199      16.53491777      14.36247882      -0.02171741      -0.05183878      -0.22878629      -0.07750037       0.40038750       0.44979128
O        8.69839194      18.66528383      16.00151698      -0.80738379       0.08364178      -0.79171144      -0.30877069       0.37062803       1.30289340
H        9.54205048      16.95223991      16.78396218       0.03550364       0.10771845       0.12072704      -0.07273412       0.25790289       0.20252177
H       10.67681491      18.29747834      16.52487752       0.02180947      -0.28938869       0.08036660      -0.52566570      -0.45404685      -0.76883030
C        8.54467352      19.28641754      17.33155737       0.17621719      -1.40521530       0.01783744       2.01367021      -1.23218441      -0.79034048
C        7.27591766      19.97335568      17.43203426      -0.47907013      -0.92208582       0.56146702      -2.65707064      -0.48644251       0.86019951
H        8.64811328      18.51711733      18.13290149       0.38508477       0.06266304      -0.32022895      -0.16987838       0.27473009      -0.53190267
H        9.38918199      19.97832739      17.46674212       0.16690935       0.12593479      -0.08355770      -0.11212341       0.01463568       0.02754446
O        7.17605844      21.15245676      16.73647499      -0.20310758       0.65207156      -1.25391397       0.64055961       1.96597624       0.23125674
H        6.43571594      19.29460761      17.11160238      -0.11739786       0.15005128      -0.08208787       0.60799086       0.34863877       0.32303396
H        7.11001194      20.23598950      18.50686997       0.11764961       0.25743737      -0.26221688       0.16351798      -0.29173642      -0.83333474
C        6.90825770      21.19155625      15.36340228      -0.39040927       0.73310172      -0.38183551       0.94389135       1.17301750      -0.15487763
C        5.44129367      21.47829805      15.19366149      -0.87186178       0.38890178      -0.02857920      -0.79063481      -2.58503556       0.63205296
H        7.46941368      22.09215967      14.99013399       0.17256629      -0.01237984       0.22550742      -0.26683411      -0.84922642       0.05020744
H        7.29968731      20.28667160      14.87532165      -0.17092199      -0.13941056       0.24755988      -0.48025537       0.17622498      -0.19298893
O        5.00477978      22.63690149      15.78339133       0.26775446      -0.05124660       0.15287599      -0.03084296       2.76596045      -0.17023730
H        5.16326163      21.44985119      14.13966813      -0.16627737       0.02753078      -0.26159743      -0.24673241      -0.35118338      -0.11210418
H        4.93571673      20.67179760      15.83120482      -0.23710553       0.02674175      -0.07268066       0.23578505       0.40836036      -1.36302555
C        4.44980847      23.64031789      14.85486828      -0.24627609      -1.19840164       0.69415796      -1.10993648      -1.60798097       1.71167302
C        4.03769373      24.80612463      15.75825073      -0.08212886       0.24565862       0.87469119       0.00913189      -0.84876323       1.33653486
H        5.12536020      23.86645904      14.05915927      -0.18916246       0.07041579       0.07868110       0.61346585       0.41701242      -0.43239024
H        3.55125478      23.13573388      14.46198038       0.00805046       0.03490218       0.26376263       0.04532712       0.47168961      -0.28771311
O        3.11899449      25.71003287      15.16364489       0.46466014       0.61804010      -1.23010027       1.49837077       0.04194819      -0.46945122
H        3.49914350      24.32130553      16.64559671       0.21463043      -0.20450733       0.31844756       0.85494691       0.60789722      -0.96016002
H        4.98530788      25.28282015      16.14658526       0.08422483       0.30552638       0.18221923      -1.05373609      -0.12861255      -0.32619676
C        3.62670349      27.04802333      15.17580081      -1.11511758       0.59836825       0.42301115      -1.67528033       0.71064174       0.54902065
H        3.53440070      27.43304511      16.20834692      -0.00249242      -0.19992383       0.05057904      -0.37817535       0.12414557      -0.32901734
H        2.99350956      27.64899481      14.47227387       0.08511833      -0.03702682       0.04493802       0.66155422      -0.44846645       0.69148970
H        4.66915545      27.18026673      14.95686868       0.22256588       0.11623594       0.06501474       0.52718163      -0.47799787      -0.71871644
H       19.94237536      10.09462802      25.94471203       0.02781892       0.06597919      -0.04752798       0.61211699      -0.83155608      -0.88707751
C       20.36612388       9.19081104      25.40591988      -0.52601729       0.55785023      -0.42342391      -0.36426240      -0.10434216       1.47992921
O       21.72743297       9.03878898      25.81196010      -0.28651251      -1.09282189      -1.37631155      -0.49068126       0.34013119       0.01945017
H       19.74842223       8.31550200      25.78551161      -0.10612869      -0.15868382      -0.07054229       0.65064037       0.73964518      -0.83470255