2272
Lattice="29.980268970726954 0.0 0.0 0.0 27.65627823566734 0.0 0.0 0.0 28.562429010951092" Properties=species:S:1:pos:R:3:momenta:R:3:forces:R:3 Origin="-14.653 -14.653 -14.653" charge=0 spin=1 energy=-1970995.1868007756 stress="0.004426618106663227 -0.00013228510215412825 0.00038472661981359124 -0.00013228510215412825 0.003810482332482934 0.0002491686900611967 0.00038472661981359124 0.0002491686900611967 0.004367003683000803" free_energy=-1970995.1868007756 pbc="T T T"
H       19.56535207      15.66954557       5.15576799      -0.05403046      -0.17915549       0.01061595       0.86251670      -0.26602635      -0.03460654
C       19.16126678      16.64351614       4.91701283       0.10570006      -0.25967682      -0.14700700       0.05851678      -0.60678262       0.80507612
O       19.51618279      17.62297472       5.84861221       0.33383229      -0.89139853      -0.29722697       0.02714569       0.66534281       1.27263165
H       19.46654875      16.99461561       3.96913752      -0.15213488       0.06754748       0.09089898       0.21567760       0.11331972      -0.97207135
H       18.11571313      16.43218250       4.93504248       0.00511483      -0.04182863      -0.06870516      -1.27855289       0.27253431      -0.20978259
C       19.46211042      17.14520650       7.20321660      -0.22661716      -0.01412759       0.03706467      -0.21561931       0.87034196      -0.41283384
C       19.68316978      18.32572470       8.17625031      -0.09399132      -0.37737751       0.38432604       0.49050441      -1.01625013       0.25982240
H       20.26414319      16.42551517       7.28236740      -0.11705978       0.02254120       0.41731337       0.16482930      -0.50730944       0.47585225
H       18.47534304      16.66200318       7.38360555      -0.13802713       0.00013761       0.01346380       0.58657742       0.20068245       0.12809616
O       18.45286142      18.93916278       8.40275573      -0.68506262      -0.27564591       0.79863035      -0.54823202       0.91406685      -0.14843938
H       20.49544502      18.97276339       7.78773771       0.09680014       0.05229700       0.17287682      -0.59355545       0.08917689      -0.14646292
H       20.04263444      18.00616256       9.17001886       0.10557243       0.03385096      -0.29498227       0.14882153      -0.54445201      -0.30865645
C       18.41249229      19.92133565       9.42460857      -0.55816761       0.45870081      -0.03321344      -0.99208194      -0.68641776       0.22827969
H       18.57415975      19.53212647      10.44963759      -0.29717476      -0.14089815      -0.21820352       0.06015133      -0.19662730      -0.45085430
H       17.40144402      20.33336464       9.38026597       0.22323031      -0.00506502      -0.29119887       0.03493349      -0.15669249       0.13816696
H       19.06810832      20.75052311       9.27874192      -0.10495710      -0.09534098       0.05524899       0.92647350       0.57140547      -0.37838554
H       16.73487995      21.55723400       4.61738828       0.02546606      -0.10293501      -0.04073517      -0.49390566       0.53500557      -0.26265538
C       15.86768950      22.08717087       5.06736840       0.64123862       0.55141844       0.41799425       0.58264005      -0.34489927       1.02401567
O       16.35921325      23.09884541       5.98751322      -0.09309290       0.53783790       0.21070136      -2.11335731      -0.17031790      -1.63105595
H       15.16767870      22.52976655       4.36239505      -0.12650933       0.19937631      -0.12407963       0.34752983      -0.07091980      -0.05478802
H       15.35907123      21.26517894       5.62759125       0.19774721      -0.21279211       0.01295032      -0.02381679       0.70958912      -0.18637650
C       16.94828558      22.45357415       7.04931075       0.06519344      -0.69227798      -0.26354993       1.61484814      -0.84988368      -0.38662967
C       16.98257524      23.25390166       8.32475332      -0.28934456      -0.04527641      -0.11124351      -0.72764939      -1.22629607       0.82899112
H       18.01354441      22.24962214       6.69694083       0.04415236      -0.02587923       0.03667800      -0.76292837      -0.27524289       0.97192794
H       16.41400292      21.48341049       7.16286292       0.08458492       0.39660485       0.15561557       0.65974349       0.37006488       0.58743578
O       15.62635883      23.54729236       8.83075456      -0.81661319      -0.19968996       0.01557535       1.92735267      -0.12080435      -0.51927805
H       17.55448646      24.17845543       8.24639112      -0.07369865      -0.02666762       0.16003666      -0.32351941       0.07497412      -0.00940057
H       17.52099213      22.51896812       9.01474196       0.00268373       0.20996559      -0.17174176      -0.65612417       1.25588429      -0.24756876
C       14.97152215      22.36048639       9.14661325       0.43192530      -0.55584560       0.08385646      -0.41578406      -1.33865047       1.77683735
H       15.66036080      21.63568885       9.76359609       0.12579438       0.26771476       0.00427356      -1.27226460       1.14914811      -1.14825010
H       14.52810927      21.84339215       8.29170652       0.14837737      -0.09526181       0.00804901       0.44128704      -0.18933453      -0.31924528
H       14.06947030      22.57366168       9.76761884      -0.23877438       0.08096137       0.06329344       0.82327372       0.21701308      -0.17173146
H       13.69190509       9.45476789       7.41210067      -0.02668135       0.25345843       0.25624647       0.12250156       0.26338843      -0.09070620
C       13.35021092      10.45145582       7.08352280       0.53530620      -0.12916215      -0.56828059       1.27181149      -0.41818354      -0.36581179
O       14.00065605      10.81054985       5.82686168       1.14261381       0.30151781       0.21412249      -0.39188027      -0.18992302       1.48450565
H       12.29661651      10.35054845       6.94624561       0.10871230      -0.08579613       0.04809347      -0.71154946       0.10280304      -0.57628024
H       13.50618942      11.16988598       7.89839821      -0.13550866       0.27158980       0.06598679       0.30141395       0.15488583      -0.29377857
C       15.39728103      10.96202288       5.98273547       0.55900452       0.19055011       1.06693394       0.35553202       1.21540940      -1.91607308
C       15.99572087      11.45754566       4.60419215      -0.38605641      -0.69580958       0.18246535      -0.79166764      -0.96842563       1.07882988
H       15.92690084      10.06205468       6.22765137       0.10137214      -0.07033093       0.26152735      -0.10314997      -1.01052570       0.19367582
H       15.68736760      11.68543188       6.74961843      -0.31534471      -0.21277212       0.11901271      -0.48114264       0.24398410      -0.01906262
O       15.50278926      12.75900474       4.37314905       0.03400849       0.18816066      -0.01898506      -0.59126920      -0.91466743      -0.15165189
H       15.70272021      10.72258569       3.78761012       0.21385574       0.10548594       0.19639361       0.35390344       0.82011193       0.72580159
H       17.09809580      11.45871702       4.73776570      -0.33919280      -0.02019359       0.15538010      -0.28154483       0.07386727      -0.29446903
C       16.16822464      13.47721143       3.37513514      -0.13279996       1.53295213      -0.67262932       0.72749394       1.48438776       0.36562788
H       15.73413999      14.49226305       3.41407752      -0.03364910      -0.04721001       0.15565918       0.22227193      -0.28331596      -0.01389191
H       16.01583068      13.18876822       2.30497745       0.06786626       0.01031631       0.14666595       0.41549927      -0.47119001       0.89234215
H       17.22920986      13.56334149       3.74423166       0.09005619      -0.00248200      -0.14435451      -0.51367134      -0.09431920      -1.17698324
H       16.15858935      16.63336166       2.08736236      -0.05970383       0.15170305      -0.00374757      -0.32834288      -0.17326750      -0.36278671
C       15.57436156      17.52485828       2.32476768      -0.06982051       0.13037205      -1.36458764      -0.60137063       0.18743831      -0.51762968
O       14.75762054      18.02451564       1.22727723       0.16478138      -0.34475661      -0.02301516       0.59967655      -0.44688371       0.84080559
H       14.88777008      17.33434059       3.13150506       0.47635495       0.07685683      -0.02499553      -0.07451335      -0.31637889       0.48671710
H       16.30570449      18.25826453       2.64003758       0.02232149       0.07106262       0.08250593      -0.08370256       0.53125077      -0.23303036
C       13.98834874      17.01461884       0.63823294       0.38607085       0.29977292       0.32364356       0.48508400      -2.34603524      -0.27338707
C       12.97364113      16.14147870       1.40309425       0.23171349       0.04903948       0.27318446      -1.02582824       0.40555292       1.51152205
H       14.63018692      16.15949708       0.25028654      -0.13122341      -0.10006409      -0.20207918      -0.13573925       1.21947300      -0.06186728
H       13.44903110      17.47260176      28.36600892      -0.10499781       0.12809270      -0.15726092       0.10720447      -0.08048351       0.10412680
O       13.51052356      15.08873159       2.21108805      -0.01800567      -0.02881603       0.61278644       0.78708076       0.06078878      -0.33866078
H       12.32851937      15.74193813       0.64557032       0.12009684      -0.25362067      -0.11351546      -0.22657216      -0.68298483      -0.94367898
H       12.24390521      16.67220291       2.02571808       0.05522362      -0.08493187      -0.22954137       0.27745652       0.50841385       0.19803442
C       12.59192653      14.19864761       2.84272631      -0.61810172       0.63107163       0.47173025      -1.21245873       1.75260937       0.13255700
H       13.14125600      13.53908718       3.48484794       0.00595082      -0.12334443      -0.19764798       0.51602238      -0.35197902       0.15903223
H       12.01530522      13.60914489       2.11012645      -0.16598610      -0.04920585       0.08086722       0.12920855       0.24429686       0.12361300
H       11.87266174      14.78485308       3.52514143      -0.13620837       0.29448328      -0.00550773       0.73764014      -0.75116229      -0.97373760
H       24.23151989      20.93281473      23.25393179      -0.10657395      -0.10848271       0.11722572      -0.27624089       0.05112233      -0.64443815
C       24.32211194      20.20775546      22.42772965       1.31729908       0.31515575       0.23356727       1.10565495      -0.95243454       0.79808533
O       25.71402302      19.80670988      22.39037018      -1.38235947       0.07055312      -0.42015036      -0.69969076       0.76898193      -1.55853713
H       23.78009716      19.31333175      22.66994710      -0.04246062      -0.01965313       0.12514594      -0.45738712      -0.41897434       0.37989992
H       23.94333680      20.51205689      21.45728590      -0.05965882       0.09335803      -0.11092874       0.02914731       0.48703903      -0.02294691
C       26.38340081      20.79951179      21.59713655      -0.83037299      -0.72513721       1.13554584      -0.31810182       2.01206446       1.63171732
C       27.88542559      20.69654764      21.89257145      -0.30279542      -0.89461060       0.86996101      -1.32670331      -0.07118428       0.01999156
H       26.02995647      21.82758572      22.02492015      -0.01648587      -0.07059921      -0.05657008       0.78202212      -1.30289173      -0.54371285
H       26.02228323      20.88425164      20.54360458       0.18158476       0.15750397       0.30534126       0.80250740      -0.73740757       0.57208699
O       28.04732762      20.90281153      23.29798817       0.33569379      -0.19220297       0.16755793      -0.70001459      -0.55569363      -0.86596936
H       28.45327065      21.51761285      21.45352166      -0.11956855      -0.10541897      -0.26229306      -0.03062476      -0.15675466      -0.77105427
H       28.28691772      19.68812645      21.60167176       0.19507330       0.35963555      -0.00502311      -0.25099257       0.77453470       0.10879880
C       29.40482069      20.72459732      23.48307458      -0.42811003       0.92331837      -0.53982926       1.00985289       1.73616314       1.85930157
H       29.64673746      20.85412840      24.54695912      -0.32592829      -0.28488390       0.00141236      -0.23055297      -0.70376301      -0.00261694
H       29.96527744      21.57365773      23.07412197      -0.10746019       0.31693632       0.01330624       0.01058182      -0.30153951      -0.65696526
H       29.71084508      19.79143270      23.07380407       0.20080180      -0.18539033       0.01948697       0.71022677      -0.89346397      -0.09186721
H       16.38177034      19.62122917       0.47350463      -0.03420232      -0.07517969      -0.18804321      -0.52144188       0.13989431       0.26443422
C       16.81670346      20.53170822       0.88321686       0.69882828       0.36132003      -0.03691363       0.88325685       1.64588690       0.43954346
O       18.24454129      20.43554509       0.73295701      -0.68570783      -0.52339194       0.28472253      -0.43131927      -0.34200904      -1.40224886
H       16.55972401      21.46626888       0.31138068       0.00086735      -0.25380442      -0.14146549      -0.59869379      -0.97462499       0.42653716
H       16.56483877      20.74982860       1.97343987      -0.17049329       0.04402002       0.02536472       0.34525725      -0.60897803      -1.35741627
C       18.49910878      20.24242812      27.86687480      -0.04964468      -0.30980269      -1.13786696       1.82244551      -0.21178724       1.46961904
C       19.97814707      19.92834543      27.65349890      -0.11843678       0.67196985       0.11822131       0.40190518      -0.14979844      -0.90211320
H       18.29997837      21.10820438      27.26426386      -0.14441604      -0.10192133      -0.18983971      -0.50761914       0.95046675      -0.04883924
H       17.94008941      19.42280558      27.41421784       0.00153838       0.13810088       0.04778183      -0.16171651      -0.14154828       0.51609403
O       20.84790552      21.07209641      27.77281308      -0.68890368       0.27119767       0.09349442       0.25589624       0.02079801       0.86181307
H       20.03250495      19.64050227      26.57058586       0.10586888       0.23324277       0.03025358       0.10219701      -0.40752700       0.73937207
H       20.32275629      19.11179791      28.32080524      -0.02423151       0.06370341       0.20677917      -0.25362852       0.29835194      -0.41799396
C       22.24136871      20.71683245      27.83722362      -0.43732610      -0.30509010      -0.30294045      -0.51188034       1.20773172      -1.79697382
H       22.43520420      19.99075951       0.02349998      -0.26422203       0.09302712      -0.15819653       0.20234716      -0.46930727       1.16662276
H       22.87654617      21.65286128      27.92297079      -0.05952822       0.35231717       0.04598526      -0.91583896      -1.03909039       0.21421160
H       22.52782472      20.23325889      26.88389744       0.11892527       0.04860041      -0.05345470      -0.02439253       0.11943708       0.09091863
H       23.86636983      14.93573318      14.81410054       0.04835132       0.21139798       0.10602243       1.63563383      -1.10783446       0.09666799
C       24.84736233      14.45033391      14.42920516      -0.14023421       0.33999392      -0.24712643      -0.70440954      -0.07869026      -0.90491635
O       25.60477090      13.55432951      15.28774171       0.08568607       0.06306820       0.61015707      -1.21239483       0.50265706      -0.14353618
H       24.55574661      13.90708376      13.47312249       0.21536097       0.20144061      -0.04649350       0.35673150       0.56878167       1.10997224
H       25.53650076      15.26062397      14.19873308      -0.03593532       0.30365198      -0.07990834      -0.09876795       0.09116446      -0.17861710
C       24.86211387      13.14449418      16.43743804       0.33522206      -0.44561433       0.23974171      -1.81294966       2.25708699      -0.79674745
C       25.35216549      11.86302682      16.89573732       0.10355221       0.03775054       0.11004351       1.01718342      -0.20552632       1.55769682
H       23.77771874      13.03992447      16.19553658       0.04719491       0.21877859      -0.08196658       0.58284825      -0.15969370      -0.10910284
H       24.84990491      13.99744347      17.15885934       0.08666417       0.19901901      -0.09803256       0.42814448      -0.74575180       0.05812509
O       26.73160474      11.93052849      17.21360656      -0.47986091       0.99939982      -0.44955512       0.02126719       0.91016263      -0.03521400
H       25.18223822      11.12732419      16.16599646       0.05849073       0.14251188      -0.05540400      -0.12582423      -1.14555383      -1.32801890
H       24.83125989      11.54702526      17.77760230      -0.08138340       0.24957969       0.13868545      -0.64493662      -0.06132576       0.58721954
C       27.06098247      11.25487310      18.40445131      -0.88510458       0.64971477      -0.11619704      -0.74436206      -0.12442103       0.67826730
H       27.99854004      11.61649304      18.72282189      -0.07369843       0.03256217      -0.40445889       1.40840340       0.33059496       0.20454098
H       27.16024580      10.19528661      18.19573942      -0.17036420      -0.16297287       0.13274217      -0.27555558      -0.22402476       0.39076498
H       26.39116619      11.49922336      19.27357435       0.28016479      -0.21015808       0.03330605       0.06045227      -0.39888027      -0.91641968
H        5.27281297      18.14714165      27.67288281      -0.17661060       0.05794157      -0.25421857       0.11123701      -0.12207140       0.62869537
C        6.31707703      18.05763775      28.01636564       0.52238540      -0.00028042      -0.35645507      -1.25539827      -2.04954314      -2.74160981
O        6.42529474      17.32505203       0.63506798       0.23023718      -0.05483719       0.10502802       0.11344735      -0.15409465       1.22493708
H        6.79734748      17.52988921      27.12509138       0.05414986      -0.30721723      -0.03596845      -0.09992500       0.63440561       1.13651931
H        6.69065521      19.02466488      28.12431079       0.12909429       0.01949706       0.06568180       0.79315102       1.72472513       0.14377059
C        7.76394494      17.47492314       1.13576678       1.22319917      -0.43135346      -0.55239241       0.65381867      -0.63042057      -0.05112873
C        8.60075613      16.37172196       0.54977690       1.51071252       0.53970305      -0.14908080       2.60492063      -1.25056970       0.49850804
H        7.86090886      17.33615546       2.23332520       0.00285175      -0.14429026       0.24564308      -0.71423244       0.49914858      -0.63517249
H        8.11567861      18.47160375       0.78692453       0.16049965      -0.02276836      -0.13864732       0.18747635      -0.60037249       0.64030105
O        8.25181449      15.05727854       1.13494534      -0.27940582      -1.36710908       0.22528588       0.53013593       0.84485739      -0.17502905
H        9.73426709      16.50658909       0.65847933      -0.00220341       0.21918728      -0.05050620      -1.40700686       0.20074095       0.45904866
H        8.51982492      16.32619518      28.05057784      -0.44924478       0.28476489      -0.24170181      -0.51417303      -0.21056290      -0.90808570
C        9.33286516      14.05982021       1.20055073      -0.34240892      -0.10494799      -0.18531111      -0.97108072       1.02129912       0.63761926
H        8.80304198      13.12086291       1.08579598      -0.17618179       0.16755050       0.09815306       0.24605896      -0.30093813       0.08090319
H        9.91565641      14.10714332       2.13663530       0.00278307      -0.10619357       0.23776870      -0.79763854       0.04672581       0.04608208
H       10.06792523      14.20542000       0.44343234      -0.04470056      -0.22684178      -0.04105181       0.24540892       0.06536700      -1.09775138
H       17.67553547      26.23886318      27.58975165      -0.11000393       0.25922804      -0.04471661       0.00709515       0.53389400       0.47798330
C       18.05724079      25.46978275      26.95015921       0.74988900      -0.00032099       0.12042164      -0.57055551      -1.33742011      -1.01440752
O       18.70685475      24.41581937      27.63837754       0.22325202       0.02430073       0.33000157       2.34710431       2.14684916      -1.27757132
H       17.19016803      24.98273760      26.43665727       0.04549347       0.25067546      -0.18655345       0.26591042       0.60051906       0.02716154
H       18.71228311      25.90623192      26.19107209       0.00311252       0.16321736       0.06795149       0.08901519      -0.19144873       0.25000775
C       17.92256667      23.80310945      28.52707811       0.09047594      -0.08496443       0.58351587      -0.71789956      -3.05018592       2.79686260
C       17.40135320      24.62726976       1.14783932       0.90985509      -0.50674314      -1.25834246      -1.69872367       0.22747229      -1.20412433
H       18.45301658      22.89437720       0.40589367       0.23237565      -0.14049673      -0.09787456      -0.03365930       1.24232686      -0.42948619
H       17.13929537      23.28040067      27.99903084      -0.27445320      -0.02820554       0.07482696      -1.26382029       0.15327831      -0.23884474
O       16.44625600      23.86215215       1.90860520       0.19421479       1.36583856      -1.06884554       1.13815880       0.29684970      -1.14524496
H       16.85722753      25.56373775       0.79527840      -0.12752497       0.21029567       0.02334301       0.68741047      -0.87023991       0.37729061
H       18.18803818      24.92774987       1.80483756       0.04408005      -0.00544946       0.07295993       0.84259802       0.33527127       0.33693337
C       16.15893776      24.63696194       3.02888836      -0.16680017      -0.00223919       1.00570366       1.16748941      -1.57338858       1.65661788
H       16.04011552      25.63722377       2.82300305       0.16412132       0.11367066       0.03075604      -0.92047620       2.43404007      -0.92500830
H       16.96362548      24.67561007       3.79199893      -0.07342164      -0.11954008      -0.04097946      -0.17396659      -0.53812206      -0.40706041
H       15.31165514      24.19858167       3.48280361      -0.33469697      -0.09340624      -0.03786230      -1.06655383      -0.02851892       0.56306577
H       25.49661192      24.73904849      24.70808629       0.00729776      -0.09292079      -0.27173733      -0.64919704       0.63938034       1.12830007
C       25.68660205      24.12886149      23.87016013      -0.30306606      -0.05176100      -0.25448131       0.43940303      -1.54006493      -1.17045677
O       26.64568966      24.83172504      23.03798698      -0.51154838      -0.00514381       0.39950114      -0.82463503      -1.17903018       0.59897822
H       26.06206049      23.12281556      24.24816894      -0.08434555      -0.24389787      -0.18405237       0.10391366       1.11766577      -0.46600929
H       24.76497942      23.84347178      23.32405357      -0.00614398       0.22203985      -0.33752426       0.50415516       0.76379925      -0.04467006
C       27.83408802      24.92421184      23.80169785      -0.44607395      -0.51504832      -0.04888542      -0.98632365       0.58881962       1.17137074
C       29.01297651      25.19762159      22.97378715       0.19275428       0.47933305      -0.07708450       1.97921145      -1.43689108       0.58363390
H       27.99380042      23.98125713      24.31899745      -0.04436423       0.16826055       0.10792818       0.21120684      -0.29328096       0.08243511
H       27.75197439      25.70033144      24.62253690       0.26749881      -0.09845226       0.18600809      -0.22888945      -0.57274944      -0.98741096
O       29.67848252      23.92016458      22.60863821       1.51298288       0.20729677      -0.32347920      -1.33448398       1.50771797       0.75445849
H       29.65137279      25.81564635      23.64282213      -0.01726530      -0.06360126      -0.10215603       0.28228649      -0.42918846      -0.69731438
H       28.84380652      25.69082406      22.05655434      -0.09028560      -0.13618194      -0.09675652      -0.47784314       0.92526311      -0.88984066
C        1.07897912      23.99922066      22.76399691      -0.22826590      -0.35915790      -0.88956832       0.36912832      -0.27518734      -1.85297370
H        1.53273059      24.54470724      21.88684377      -0.10270788       0.02604266       0.24790322      -0.09946840      -0.30605051       0.94613940
H        1.41537598      22.96955265      22.72446274      -0.08006233       0.07212425      -0.24614025       0.47239146      -0.13649134      -0.00232711
H        1.35191968      24.41369191      23.70964867      -0.13369863       0.06968146      -0.13893031       0.36587998       0.51503098       0.74057025
H        9.44161448      16.64476911       9.24114422       0.12510313      -0.17130052      -0.04872016       0.63046139      -0.98083812       1.78282380
C        9.13001956      16.75006924       8.25606315       0.02964430      -0.50887299       0.53395932       0.82933038       2.60321736      -2.83507729
O       10.05226287      16.31765377       7.24496372      -0.73131109       0.88745865       1.55996600       0.19163537      -0.77029008       0.60244679
H        8.22962815      16.27750608       8.00379213       0.27464172      -0.05758117       0.13951063      -1.73759043      -0.33013856       0.28143138
H        9.09447212      17.84723506       8.09471418       0.05385446       0.05310834      -0.25570977      -0.53682941      -0.46102050       0.09657668
C       10.07410119      14.88161252       7.25095583      -0.07623947       0.41321306       0.15082225      -0.04287364      -0.44666848       1.22833490
C       11.49815598      14.36827506       7.49898566      -0.03867468      -0.74342395       0.26348017      -1.01793075      -1.20734942      -0.71550268
H        9.61335371      14.42575870       6.37356694      -0.30911252      -0.27037907      -0.07432358       0.50721633       0.62917095      -0.64280689
H        9.35902314      14.49243121       8.03442027      -0.00533586      -0.04214572       0.02070422       1.10095787       0.29073805      -0.28189456
O       12.40937648      14.91382310       6.58275119       0.38358914      -0.59801838       0.11767174       0.66280138       0.38904822      -0.87890333
H       11.46939997      13.29118816       7.30087313      -0.00578797       0.02281229      -0.39224375      -0.15170357      -0.03185427       0.24252498
H       11.84728304      14.45673763       8.51640528       0.15090293      -0.10564716       0.17045663       0.01101895       0.44423443       0.45052215
C       13.46285484      13.98123403       6.26961699      -0.46261969       0.02519111      -0.27415973       0.26073548       0.48813063       0.43650690
H       14.15291418      14.36317668       5.53288811       0.02048414       0.06881365      -0.06814480      -0.13132712       0.65173054      -0.25891715
H       13.12388495      13.04086394       5.87154686      -0.21462267      -0.30418111       0.00070893      -0.63479722      -0.36870968      -0.10441834
H       14.06276465      13.77306467       7.14954990       0.13208631      -0.04438815      -0.15887226       0.03347685      -0.10238515       0.42189673
H       19.63090357      15.80044720      13.53378504       0.05345105       0.07082015      -0.07775370      -0.02525416      -0.44983435      -0.07568730
C       20.68519848      15.51881833      13.67151154       0.61955128       0.16888580      -0.64107003      -0.70473695       0.20076217      -0.02349926
O       21.48646977      16.32608686      12.86590950       0.39122777      -0.30193598       0.57220182       0.41428775       1.68844891       0.30297485
H       20.88296897      15.60627408      14.72369996      -0.02732785      -0.09501371      -0.00183216       0.40508696       0.28201795       0.75800735
H       20.88432129      14.50877383      13.41404120      -0.07435150       0.08614998      -0.06752165      -0.08384626      -1.02670670      -0.38373420
C       21.15937017      17.70314255      13.14819844      -0.09388612      -0.01466120      -0.10719789      -0.47565573      -0.23863220      -1.06923044
C       21.58061260      18.64585025      12.00234958      -0.06781365      -0.15981963       0.11559728      -0.20835559      -0.18250380       0.34771249
H       21.57411594      18.03565558      14.10677738       0.08141257      -0.09785326       0.20966680       0.01450353      -0.08518615      -0.05829846
H       20.04420793      17.70007843      13.19111298       0.13913507       0.22268959       0.17194501       0.54856789       0.56957483       0.13874012
O       22.96902066      18.90192899      12.01291384       0.34563686       0.13461044      -0.63370777       0.40018627       0.97992724       0.43260658
H       21.01475523      19.58000819      12.07983015      -0.02068909      -0.14954222      -0.21595532      -0.00841999       0.07549111       0.26538649
H       21.25409483      18.18609191      11.06211241       0.08205257       0.07194953       0.11817180       0.18263260      -0.13612194      -0.15964261
C       23.42146100      20.14927860      11.41183296      -0.45868677      -0.09490359       1.37252067      -0.80097258      -2.32516503      -1.88442767